 Entering Gaussian System, Link 0=g16
 Input=molec1_tdcis.inp
 Output=molec1_tdcis.log
 Initial command:
 /sw/restricted/lms/sw/Gaussian/g16_B01/g16/l1.exe "/scratch/user/ca12058097/ca12058097/1755236425000000609372319/Gau-3763723.inp" -scrdir="/scratch/user/ca12058097/ca12058097/1755236425000000609372319/"
 Entering Link 1 = /sw/restricted/lms/sw/Gaussian/g16_B01/g16/l1.exe PID=   3763724.
  
 Copyright (c) 1988-2017, Gaussian, Inc.  All Rights Reserved.
  
 This is part of the Gaussian(R) 16 program.  It is based on
 the Gaussian(R) 09 system (copyright 2009, Gaussian, Inc.),
 the Gaussian(R) 03 system (copyright 2003, Gaussian, Inc.),
 the Gaussian(R) 98 system (copyright 1998, Gaussian, Inc.),
 the Gaussian(R) 94 system (copyright 1995, Gaussian, Inc.),
 the Gaussian 92(TM) system (copyright 1992, Gaussian, Inc.),
 the Gaussian 90(TM) system (copyright 1990, Gaussian, Inc.),
 the Gaussian 88(TM) system (copyright 1988, Gaussian, Inc.),
 the Gaussian 86(TM) system (copyright 1986, Carnegie Mellon
 University), and the Gaussian 82(TM) system (copyright 1983,
 Carnegie Mellon University). Gaussian is a federally registered
 trademark of Gaussian, Inc.
  
 This software contains proprietary and confidential information,
 including trade secrets, belonging to Gaussian, Inc.
  
 This software is provided under written license and may be
 used, copied, transmitted, or stored only in accord with that
 written license.
  
 The following legend is applicable only to US Government
 contracts under FAR:
  
                    RESTRICTED RIGHTS LEGEND
  
 Use, reproduction and disclosure by the US Government is
 subject to restrictions as set forth in subparagraphs (a)
 and (c) of the Commercial Computer Software - Restricted
 Rights clause in FAR 52.227-19.
  
 Gaussian, Inc.
 340 Quinnipiac St., Bldg. 40, Wallingford CT 06492
  
  
 ---------------------------------------------------------------
 Warning -- This program may not be used in any manner that
 competes with the business of Gaussian, Inc. or will provide
 assistance to any competitor of Gaussian, Inc.  The licensee
 of this program is prohibited from giving any competitor of
 Gaussian, Inc. access to this program.  By using this program,
 the user acknowledges that Gaussian, Inc. is engaged in the
 business of creating and licensing software in the field of
 computational chemistry and represents and warrants to the
 licensee that it is not a competitor of Gaussian, Inc. and that
 it will not use this program in any manner prohibited above.
 ---------------------------------------------------------------
  

 Cite this work as:
 Gaussian 16, Revision B.01,
 M. J. Frisch, G. W. Trucks, H. B. Schlegel, G. E. Scuseria, 
 M. A. Robb, J. R. Cheeseman, G. Scalmani, V. Barone, 
 G. A. Petersson, H. Nakatsuji, X. Li, M. Caricato, A. V. Marenich, 
 J. Bloino, B. G. Janesko, R. Gomperts, B. Mennucci, H. P. Hratchian, 
 J. V. Ortiz, A. F. Izmaylov, J. L. Sonnenberg, D. Williams-Young, 
 F. Ding, F. Lipparini, F. Egidi, J. Goings, B. Peng, A. Petrone, 
 T. Henderson, D. Ranasinghe, V. G. Zakrzewski, J. Gao, N. Rega, 
 G. Zheng, W. Liang, M. Hada, M. Ehara, K. Toyota, R. Fukuda, 
 J. Hasegawa, M. Ishida, T. Nakajima, Y. Honda, O. Kitao, H. Nakai, 
 T. Vreven, K. Throssell, J. A. Montgomery, Jr., J. E. Peralta, 
 F. Ogliaro, M. J. Bearpark, J. J. Heyd, E. N. Brothers, K. N. Kudin, 
 V. N. Staroverov, T. A. Keith, R. Kobayashi, J. Normand, 
 K. Raghavachari, A. P. Rendell, J. C. Burant, S. S. Iyengar, 
 J. Tomasi, M. Cossi, J. M. Millam, M. Klene, C. Adamo, R. Cammi, 
 J. W. Ochterski, R. L. Martin, K. Morokuma, O. Farkas, 
 J. B. Foresman, and D. J. Fox, Gaussian, Inc., Wallingford CT, 2016.
 
 ******************************************
 Gaussian 16:  ES64L-G16RevB.01 20-Dec-2017
                15-Aug-2025 
 ******************************************
 %OldChk=molec1_cis.chk
 %Chk=molec1_tdcis.chk
 %mem=8GB
 %nprocshared=8
 Will use up to    8 processors via shared memory.
 Copying data from "molec1_cis.chk" to current chk file "molec1_tdcis.chk"
 IOpt=  2 FromEx=T IUOpen= 4 IOptOp= 5 NList=   0 IFRang= 0 IUIn= 4 IUOut= 2.
 ----------------------------------------------------------------------
 #T gfinput b3lyp/def2svp nosym td=(nstates=5) IOP(5/33=1) int(grid=ult
 rafine) scf=(verytight)
 ----------------------------------------------------------------------
 ----------------
 cis isomer tddft
 ----------------
 Symbolic Z-matrix:
 Charge =  0 Multiplicity = 1
 O                    -0.35683   2.90656  -0.58949 
 C                     0.43589   2.41177   0.19331 
 N                     0.19005   1.32107   0.98842 
 N                    -0.91535   0.53008   1.03933 
 C                    -1.99033   0.77224   0.35791 
 C                    -3.13756  -0.12203   0.46285 
 C                    -3.12485  -1.27621   1.29879 
 O                    -2.06193  -1.60524   2.03688 
 C                    -4.26628  -2.09582   1.34995 
 C                    -5.3983   -1.79437   0.59969 
 C                    -5.40901  -0.65787  -0.22244 
 Br                   -6.96504  -0.24678  -1.25129 
 C                    -4.29396   0.16765  -0.29051 
 C                     1.85117   2.99169   0.39337 
 N                     2.93139   2.12944  -0.05868 
 C                     3.40782   1.10978   0.71224 
 C                     4.59124   0.35265   0.19142 
 C                     4.84099  -0.91682   0.73729 
 C                     5.92525  -1.67831   0.30762 
 C                     6.78129  -1.16047  -0.67134 
 Cl                    8.14237  -2.10477  -1.21397 
 C                     6.56316   0.11001  -1.21475 
 C                     5.47073   0.85999  -0.77918 
 O                     2.88227   0.82348   1.78832 
 H                     0.96861   0.98903   1.56715 
 H                    -2.06425   1.63883  -0.30638 
 H                    -1.36296  -0.91901   1.87589 
 H                    -4.2388   -2.9756    1.99591 
 H                    -6.27681  -2.44013   0.6502 
 H                    -4.3024    1.05236  -0.93064 
 H                     2.00833   3.21011   1.46132 
 H                     1.87964   3.93127  -0.17224 
 H                     3.24551   2.21787  -1.01683 
 H                     4.16601  -1.29413   1.50749 
 H                     6.11514  -2.66825   0.72525 
 H                     7.25109   0.50616  -1.96309 
 H                     5.33279   1.86405  -1.18787 
 
                    Distance matrix (angstroms):
                    1          2          3          4          5
     1  O    0.000000
     2  C    1.219014   0.000000
     3  N    2.302748   1.371955   0.000000
     4  N    2.934728   2.466244   1.360213   0.000000
     5  C    2.849775   2.932866   2.335126   1.295580   0.000000
     6  C    4.244084   4.388890   3.664937   2.386580   1.458379
     7  C    5.359393   5.244251   4.222651   2.865638   2.523594
     8  O    5.491950   5.076835   3.838490   2.620946   2.911434
     9  C    6.638455   6.615638   5.627148   4.268558   3.793400
    10  C    6.994950   7.203789   6.409897   5.068842   4.273197
    11  C    6.193904   6.615017   6.060687   4.816248   3.750924
    12  Br   7.351866   7.995530   7.659619   6.515296   5.326881
    13  C    4.805414   5.257533   4.803374   3.648943   2.468339
    14  C    2.418365   1.542505   2.429883   3.759040   4.436695
    15  N    3.420238   2.524028   3.043814   4.308249   5.122385
    16  C    4.369832   3.285847   3.236496   4.374109   5.420277
    17  C    5.622778   4.637553   4.576405   5.574317   6.597028
    18  C    6.587554   5.548001   5.167439   5.943085   7.047249
    19  C    7.828812   6.846523   6.507860   7.225390   8.286376
    20  C    8.215846   7.332982   7.235831   8.063666   9.040795
    21  Cl   9.886340   9.042643   8.934553   9.698564  10.649857
    22  C    7.489850   6.695085   6.851065   7.822114   8.722035
    23  C    6.179389   5.357553   5.587714   6.648148   7.547716
    24  O    4.526029   3.324377   2.852270   3.881879   5.078468
    25  H    3.175653   2.048268   1.025340   2.009612   3.203831
    26  H    2.145365   2.664179   2.619039   2.088109   1.094407
    27  H    4.661049   4.142589   2.866604   1.732068   2.357576
    28  H    7.506912   7.357026   6.252290   4.924442   4.667431
    29  H    8.072799   8.295183   7.488748   6.141562   5.364575
    30  H    4.372865   5.055952   4.892557   3.952924   2.661675
    31  H    3.145146   2.172038   2.664247   3.988549   4.811441
    32  H    2.495182   2.127656   3.318883   4.565958   5.023665
    33  H    3.692387   3.065285   3.763117   4.938536   5.603007
    34  H    6.519139   5.419832   4.787164   5.419150   6.594835
    35  H    8.642528   7.638282   7.147762   7.730184   8.813079
    36  H    8.095000   7.397857   7.696340   8.700909   9.532130
    37  H    5.815208   5.117352   5.610598   6.766032   7.563699
                    6          7          8          9         10
     6  C    0.000000
     7  C    1.425158   0.000000
     8  O    2.415456   1.335226   0.000000
     9  C    2.440657   1.406148   2.360445   0.000000
    10  C    2.815385   2.434297   3.637667   1.391123   0.000000
    11  C    2.432335   2.813161   4.147886   2.417838   1.402727
    12  Br   4.195645   4.723310   6.057877   4.179554   2.876774
    13  C    1.410225   2.444875   3.679919   2.795564   2.421064
    14  C    5.881107   6.617812   6.256612   8.013798   8.689283
    15  N    6.494093   7.079493   6.578183   8.464254   9.231114
    16  C    6.664942   6.979448   6.248531   8.341124   9.273316
    17  C    7.748117   7.963511   7.176612   9.262449  10.225815
    18  C    8.022733   7.993689   7.057847   9.203688  10.277748
    19  C    9.196770   9.113090   8.172561  10.253202  11.327910
    20  C   10.037346  10.100815   9.259314  11.269848  12.262128
    21  Cl  11.574960  11.573706  10.721254  12.670771  13.665114
    22  C    9.847441  10.104304   9.375891  11.345493  12.247257
    23  C    8.752692   9.097542   8.411214  10.396127  11.273095
    24  O    6.236114   6.382299   5.514121   7.734094   8.765484
    25  H    4.394828   4.686120   4.016848   6.080096   7.015754
    26  H    2.200984   3.492688   4.001853   4.641118   4.870697
    27  H    2.404381   1.888094   0.992670   3.176601   4.321911
    28  H    3.421377   2.148203   2.572606   1.091797   2.165447
    29  H    3.906862   3.422022   4.514988   2.156484   1.091483
    30  H    2.162841   3.432087   4.570416   3.887604   3.412742
    31  H    6.211298   6.819307   6.331338   8.218029   8.980274
    32  H    6.481119   7.370666   7.146270   8.741585   9.292324
    33  H    6.957592   7.625751   7.218737   8.979785   9.665741
    34  H    7.470418   7.293865   6.258137   8.471781   9.620306
    35  H    9.600229   9.361840   8.349539  10.415941  11.547234
    36  H   10.686614  11.021647  10.353262  12.263619  13.109813
    37  H    8.855294   9.358226   8.781624  10.689405  11.477619
                   11         12         13         14         15
    11  C    0.000000
    12  Br   1.910167   0.000000
    13  C    1.389051   2.868712   0.000000
    14  C    8.149150   9.535091   6.797456   0.000000
    15  N    8.795352  10.247340   7.490529   1.454200   0.000000
    16  C    9.040721  10.643859   7.823709   2.463008   1.364189
    17  C   10.059695  11.661402   8.900183   3.809632   2.444308
    18  C   10.298091  11.991069   9.256337   4.932924   3.682371
    19  C   11.392442  13.062887  10.401806   6.197932   4.857607
    20  C   12.208915  13.788864  11.161099   6.533003   5.101040
    21  Cl  13.664424  15.221276  12.675919   8.254494   6.813045
    22  C   12.037739  13.532951  10.896539   5.752651   4.313277
    23  C   10.999209  12.493844   9.801392   4.361223   2.928974
    24  O    8.659262  10.361179   7.499989   2.776724   2.262606
    25  H    6.825608   8.509613   5.640935   2.483403   2.792200
    26  H    4.058237   5.335359   2.671368   4.201233   5.025781
    27  H    4.565274   6.450924   3.803272   5.274657   5.610441
    28  H    3.415013   5.042133   3.887254   8.675497   9.038494
    29  H    2.165874   2.983301   3.408392   9.779292  10.304098
    30  H    2.156628   2.979971   1.092042   6.586373   7.365330
    31  H    8.533067   9.991475   7.214171   1.101334   2.080937
    32  H    8.613200   9.841178   7.231333   1.097062   2.089417
    33  H    9.154321  10.506410   7.846940   2.128765   1.012191
    34  H    9.750819  11.515554   8.771582   4.996801   3.962078
    35  H   11.736510  13.448464  10.836205   7.094112   5.811077
    36  H   12.832102  14.253833  11.670483   6.394520   4.992154
    37  H   11.076032  12.477831   9.816180   3.986677   2.666876
                   16         17         18         19         20
    16  C    0.000000
    17  C    1.498328   0.000000
    18  C    2.482280   1.404244   0.000000
    19  C    3.778178   2.432670   1.392876   0.000000
    20  C    4.295190   2.798252   2.410058   1.399762   0.000000
    21  Cl   6.038181   4.541429   4.014693   2.722633   1.743184
    22  C    3.830014   2.434060   2.798335   2.433638   1.398918
    23  C    2.557800   1.404621   2.419358   2.798333   2.410692
    24  O    1.231313   2.385868   2.823100   4.208463   5.018803
    25  H    2.587508   3.926970   4.395031   5.767967   6.589273
    26  H    5.591152   6.796883   7.436595   8.672515   9.285089
    27  H    5.313224   6.317201   6.307566   7.493595   8.536714
    28  H    8.764064   9.607446   9.394961  10.384661  11.482654
    29  H   10.314925  11.230523  11.222014  12.230619  13.187042
    30  H    7.883510   8.991409   9.500592  10.658079  11.305399
    31  H    2.632693   4.055754   5.057638   6.369452   6.814057
    32  H    3.328429   4.504615   5.753332   6.932866   7.085275
    33  H    2.060064   2.598054   3.930488   4.910738   4.902475
    34  H    2.643121   2.150527   1.091411   2.163842   3.406595
    35  H    4.647928   3.425355   2.165893   1.091076   2.160469
    36  H    4.721489   3.426406   3.889148   3.418458   2.160314
    37  H    2.807999   2.176387   3.417796   3.890474   3.393030
                   21         22         23         24         25
    21  Cl   0.000000
    22  C    2.720138   0.000000
    23  C    4.014535   1.394844   0.000000
    24  O    6.727340   4.803794   3.646033   0.000000
    25  H    8.292716   6.309569   5.078488   1.933499   0.000000
    26  H   10.909323   8.808782   7.589866   5.433285   3.623612
    27  H   10.065012   8.569377   7.544104   4.589754   3.028555
    28  H   12.820100  11.683817  10.802212   8.073760   6.558902
    29  H   14.543051  13.222937  12.285707   9.789541   8.068210
    30  H   12.842118  10.910046   9.776195   7.685345   5.833219
    31  H    8.545854   6.125232   4.746700   2.562557   2.454666
    32  H    8.760185   6.133862   4.764149   3.808865   3.537263
    33  H    6.534777   3.935614   2.617618   3.153590   3.656671
    34  H    4.886198   3.889540   3.401677   2.492216   3.929350
    35  H    2.861424   3.418039   3.889344   4.875829   6.369558
    36  H    2.858762   1.090961   2.167141   5.767181   7.222556
    37  H    4.862711   2.142708   1.092792   3.993191   5.234682
                   26         27         28         29         30
    26  H    0.000000
    27  H    3.434624   0.000000
    28  H    5.596614   3.537571   0.000000
    29  H    5.941260   5.287917   2.500231   0.000000
    30  H    2.396443   4.516993   4.979276   4.312174   0.000000
    31  H    4.709522   5.346685   8.807683  10.061142   7.085379
    32  H    4.563725   6.183407   9.478450  10.382622   6.861552
    33  H    5.388279   6.280585   9.594971  10.730816   7.637846
    34  H    7.120991   5.553907   8.585258  10.540432   9.119453
    35  H    9.301479   7.765673  10.436141  12.394275  11.185255
    36  H    9.529067   9.537850  12.641746  14.089495  11.612376
    37  H    7.452785   7.871791  11.188118  12.517481   9.672740
                   31         32         33         34         35
    31  H    0.000000
    32  H    1.790297   0.000000
    33  H    2.942175   2.348339   0.000000
    34  H    4.994588   5.945911   4.421950   0.000000
    35  H    7.208517   7.892944   5.928211   2.509818   0.000000
    36  H    6.820885   6.617477   4.457579   4.980330   4.312120
    37  H    4.458940   4.150805   2.123959   4.312826   4.981343
                   36         37
    36  H    0.000000
    37  H    2.474812   0.000000
 Symmetry turned off by external request.
 Framework group  C1[X(C16H13BrClN3O3)]
 Deg. of freedom   105
 Rotational constants (GHZ):           0.3781875           0.0453380           0.0436046
 AO basis set in the form of general basis input (Overlap normalization):
      1 0
 S   5 1.00       0.000000000000
      0.2266176779D+04 -0.5389350392D-02
      0.3408701019D+03 -0.4023472139D-01
      0.7736313517D+02 -0.1800818421D+00
      0.2147964494D+02 -0.4682885766D+00
      0.6658943312D+01 -0.4469261716D+00
 S   1 1.00       0.000000000000
      0.8097597567D+00  0.1000000000D+01
 S   1 1.00       0.000000000000
      0.2553077223D+00  0.1000000000D+01
 P   3 1.00       0.000000000000
      0.1772150432D+02  0.6263024876D-01
      0.3863550544D+01  0.3333113848D+00
      0.1048092088D+01  0.7414863831D+00
 P   1 1.00       0.000000000000
      0.2764154441D+00  0.1000000000D+01
 D   1 1.00       0.000000000000
      0.1200000000D+01  0.1000000000D+01
 ****
      2 0
 S   5 1.00       0.000000000000
      0.1238401694D+04  0.5517365048D-02
      0.1862900499D+03  0.4108882856D-01
      0.4225117635D+02  0.1822538213D+00
      0.1167655793D+02  0.4682845944D+00
      0.3593050648D+01  0.4457581734D+00
 S   1 1.00       0.000000000000
      0.4024514736D+00  0.1000000000D+01
 S   1 1.00       0.000000000000
      0.1309018267D+00  0.1000000000D+01
 P   3 1.00       0.000000000000
      0.9468097062D+01  0.5688833201D-01
      0.2010354514D+01  0.3129405934D+00
      0.5477100471D+00  0.7606501651D+00
 P   1 1.00       0.000000000000
      0.1526861379D+00  0.1000000000D+01
 D   1 1.00       0.000000000000
      0.8000000000D+00  0.1000000000D+01
 ****
      3 0
 S   5 1.00       0.000000000000
      0.1712841585D+04 -0.5447799580D-02
      0.2576481268D+03 -0.4062717463D-01
      0.5845824585D+02 -0.1811196225D+00
      0.1619836791D+02 -0.4684397556D+00
      0.5005260081D+01 -0.4461684629D+00
 S   1 1.00       0.000000000000
      0.5873185657D+00  0.1000000000D+01
 S   1 1.00       0.000000000000
      0.1876459225D+00  0.1000000000D+01
 P   3 1.00       0.000000000000
      0.1357147023D+02 -0.5884811697D-01
      0.2925737287D+01 -0.3202462476D+00
      0.7992775075D+00 -0.7532822652D+00
 P   1 1.00       0.000000000000
      0.2195434803D+00  0.1000000000D+01
 D   1 1.00       0.000000000000
      0.1000000000D+01  0.1000000000D+01
 ****
      4 0
 S   5 1.00       0.000000000000
      0.1712841585D+04 -0.5447799580D-02
      0.2576481268D+03 -0.4062717463D-01
      0.5845824585D+02 -0.1811196225D+00
      0.1619836791D+02 -0.4684397556D+00
      0.5005260081D+01 -0.4461684629D+00
 S   1 1.00       0.000000000000
      0.5873185657D+00  0.1000000000D+01
 S   1 1.00       0.000000000000
      0.1876459225D+00  0.1000000000D+01
 P   3 1.00       0.000000000000
      0.1357147023D+02 -0.5884811697D-01
      0.2925737287D+01 -0.3202462476D+00
      0.7992775075D+00 -0.7532822652D+00
 P   1 1.00       0.000000000000
      0.2195434803D+00  0.1000000000D+01
 D   1 1.00       0.000000000000
      0.1000000000D+01  0.1000000000D+01
 ****
      5 0
 S   5 1.00       0.000000000000
      0.1238401694D+04  0.5517365048D-02
      0.1862900499D+03  0.4108882856D-01
      0.4225117635D+02  0.1822538213D+00
      0.1167655793D+02  0.4682845944D+00
      0.3593050648D+01  0.4457581734D+00
 S   1 1.00       0.000000000000
      0.4024514736D+00  0.1000000000D+01
 S   1 1.00       0.000000000000
      0.1309018267D+00  0.1000000000D+01
 P   3 1.00       0.000000000000
      0.9468097062D+01  0.5688833201D-01
      0.2010354514D+01  0.3129405934D+00
      0.5477100471D+00  0.7606501651D+00
 P   1 1.00       0.000000000000
      0.1526861379D+00  0.1000000000D+01
 D   1 1.00       0.000000000000
      0.8000000000D+00  0.1000000000D+01
 ****
      6 0
 S   5 1.00       0.000000000000
      0.1238401694D+04  0.5517365048D-02
      0.1862900499D+03  0.4108882856D-01
      0.4225117635D+02  0.1822538213D+00
      0.1167655793D+02  0.4682845944D+00
      0.3593050648D+01  0.4457581734D+00
 S   1 1.00       0.000000000000
      0.4024514736D+00  0.1000000000D+01
 S   1 1.00       0.000000000000
      0.1309018267D+00  0.1000000000D+01
 P   3 1.00       0.000000000000
      0.9468097062D+01  0.5688833201D-01
      0.2010354514D+01  0.3129405934D+00
      0.5477100471D+00  0.7606501651D+00
 P   1 1.00       0.000000000000
      0.1526861379D+00  0.1000000000D+01
 D   1 1.00       0.000000000000
      0.8000000000D+00  0.1000000000D+01
 ****
      7 0
 S   5 1.00       0.000000000000
      0.1238401694D+04  0.5517365048D-02
      0.1862900499D+03  0.4108882856D-01
      0.4225117635D+02  0.1822538213D+00
      0.1167655793D+02  0.4682845944D+00
      0.3593050648D+01  0.4457581734D+00
 S   1 1.00       0.000000000000
      0.4024514736D+00  0.1000000000D+01
 S   1 1.00       0.000000000000
      0.1309018267D+00  0.1000000000D+01
 P   3 1.00       0.000000000000
      0.9468097062D+01  0.5688833201D-01
      0.2010354514D+01  0.3129405934D+00
      0.5477100471D+00  0.7606501651D+00
 P   1 1.00       0.000000000000
      0.1526861379D+00  0.1000000000D+01
 D   1 1.00       0.000000000000
      0.8000000000D+00  0.1000000000D+01
 ****
      8 0
 S   5 1.00       0.000000000000
      0.2266176779D+04 -0.5389350392D-02
      0.3408701019D+03 -0.4023472139D-01
      0.7736313517D+02 -0.1800818421D+00
      0.2147964494D+02 -0.4682885766D+00
      0.6658943312D+01 -0.4469261716D+00
 S   1 1.00       0.000000000000
      0.8097597567D+00  0.1000000000D+01
 S   1 1.00       0.000000000000
      0.2553077223D+00  0.1000000000D+01
 P   3 1.00       0.000000000000
      0.1772150432D+02  0.6263024876D-01
      0.3863550544D+01  0.3333113848D+00
      0.1048092088D+01  0.7414863831D+00
 P   1 1.00       0.000000000000
      0.2764154441D+00  0.1000000000D+01
 D   1 1.00       0.000000000000
      0.1200000000D+01  0.1000000000D+01
 ****
      9 0
 S   5 1.00       0.000000000000
      0.1238401694D+04  0.5517365048D-02
      0.1862900499D+03  0.4108882856D-01
      0.4225117635D+02  0.1822538213D+00
      0.1167655793D+02  0.4682845944D+00
      0.3593050648D+01  0.4457581734D+00
 S   1 1.00       0.000000000000
      0.4024514736D+00  0.1000000000D+01
 S   1 1.00       0.000000000000
      0.1309018267D+00  0.1000000000D+01
 P   3 1.00       0.000000000000
      0.9468097062D+01  0.5688833201D-01
      0.2010354514D+01  0.3129405934D+00
      0.5477100471D+00  0.7606501651D+00
 P   1 1.00       0.000000000000
      0.1526861379D+00  0.1000000000D+01
 D   1 1.00       0.000000000000
      0.8000000000D+00  0.1000000000D+01
 ****
     10 0
 S   5 1.00       0.000000000000
      0.1238401694D+04  0.5517365048D-02
      0.1862900499D+03  0.4108882856D-01
      0.4225117635D+02  0.1822538213D+00
      0.1167655793D+02  0.4682845944D+00
      0.3593050648D+01  0.4457581734D+00
 S   1 1.00       0.000000000000
      0.4024514736D+00  0.1000000000D+01
 S   1 1.00       0.000000000000
      0.1309018267D+00  0.1000000000D+01
 P   3 1.00       0.000000000000
      0.9468097062D+01  0.5688833201D-01
      0.2010354514D+01  0.3129405934D+00
      0.5477100471D+00  0.7606501651D+00
 P   1 1.00       0.000000000000
      0.1526861379D+00  0.1000000000D+01
 D   1 1.00       0.000000000000
      0.8000000000D+00  0.1000000000D+01
 ****
     11 0
 S   5 1.00       0.000000000000
      0.1238401694D+04  0.5517365048D-02
      0.1862900499D+03  0.4108882856D-01
      0.4225117635D+02  0.1822538213D+00
      0.1167655793D+02  0.4682845944D+00
      0.3593050648D+01  0.4457581734D+00
 S   1 1.00       0.000000000000
      0.4024514736D+00  0.1000000000D+01
 S   1 1.00       0.000000000000
      0.1309018267D+00  0.1000000000D+01
 P   3 1.00       0.000000000000
      0.9468097062D+01  0.5688833201D-01
      0.2010354514D+01  0.3129405934D+00
      0.5477100471D+00  0.7606501651D+00
 P   1 1.00       0.000000000000
      0.1526861379D+00  0.1000000000D+01
 D   1 1.00       0.000000000000
      0.8000000000D+00  0.1000000000D+01
 ****
     12 0
 S   6 1.00       0.000000000000
      0.1132863878D+06  0.1705919551D-02
      0.1700962630D+05  0.1307882230D-01
      0.3870184257D+04  0.6499867926D-01
      0.1093035723D+04  0.2275020107D+00
      0.3563972180D+03  0.4660976330D+00
      0.1231253964D+03  0.3680375540D+00
 S   3 1.00       0.000000000000
      0.2367408401D+03 -0.1107326939D+00
      0.2846866107D+02  0.6388292534D+00
      0.1188344372D+02  0.4362572005D+00
 S   3 1.00       0.000000000000
      0.2126963331D+02 -0.2185898777D+00
      0.3612922684D+01  0.7126890487D+00
      0.1662664897D+01  0.4120671387D+00
 S   1 1.00       0.000000000000
      0.3482379323D+00  0.1000000000D+01
 S   1 1.00       0.000000000000
      0.1301903139D+00  0.1000000000D+01
 P   5 1.00       0.000000000000
      0.1560280188D+04  0.8228534626D-02
      0.3684785920D+03  0.6253400183D-01
      0.1172297885D+03  0.2501185944D+00
      0.4264890925D+02  0.5082417418D+00
      0.1608722510D+02  0.3453094664D+00
 P   3 1.00       0.000000000000
      0.8635281006D+01  0.3243461531D+00
      0.3561366550D+01  0.5445484413D+00
      0.1529262661D+01  0.2304160340D+00
 P   1 1.00       0.000000000000
      0.5306429485D+00  0.1000000000D+01
 P   1 1.00       0.000000000000
      0.1570275896D+00  0.1000000000D+01
 D   4 1.00       0.000000000000
      0.1048551864D+03  0.2669225100D-01
      0.3028114369D+02  0.1585672386D+00
      0.1065139427D+02  0.4298361819D+00
      0.3869945623D+01  0.5779699329D+00
 D   1 1.00       0.000000000000
      0.1324087676D+01  0.1000000000D+01
 D   1 1.00       0.000000000000
      0.3890000000D+00  0.1000000000D+01
 ****
     13 0
 S   5 1.00       0.000000000000
      0.1238401694D+04  0.5517365048D-02
      0.1862900499D+03  0.4108882856D-01
      0.4225117635D+02  0.1822538213D+00
      0.1167655793D+02  0.4682845944D+00
      0.3593050648D+01  0.4457581734D+00
 S   1 1.00       0.000000000000
      0.4024514736D+00  0.1000000000D+01
 S   1 1.00       0.000000000000
      0.1309018267D+00  0.1000000000D+01
 P   3 1.00       0.000000000000
      0.9468097062D+01  0.5688833201D-01
      0.2010354514D+01  0.3129405934D+00
      0.5477100471D+00  0.7606501651D+00
 P   1 1.00       0.000000000000
      0.1526861379D+00  0.1000000000D+01
 D   1 1.00       0.000000000000
      0.8000000000D+00  0.1000000000D+01
 ****
     14 0
 S   5 1.00       0.000000000000
      0.1238401694D+04  0.5517365048D-02
      0.1862900499D+03  0.4108882856D-01
      0.4225117635D+02  0.1822538213D+00
      0.1167655793D+02  0.4682845944D+00
      0.3593050648D+01  0.4457581734D+00
 S   1 1.00       0.000000000000
      0.4024514736D+00  0.1000000000D+01
 S   1 1.00       0.000000000000
      0.1309018267D+00  0.1000000000D+01
 P   3 1.00       0.000000000000
      0.9468097062D+01  0.5688833201D-01
      0.2010354514D+01  0.3129405934D+00
      0.5477100471D+00  0.7606501651D+00
 P   1 1.00       0.000000000000
      0.1526861379D+00  0.1000000000D+01
 D   1 1.00       0.000000000000
      0.8000000000D+00  0.1000000000D+01
 ****
     15 0
 S   5 1.00       0.000000000000
      0.1712841585D+04 -0.5447799580D-02
      0.2576481268D+03 -0.4062717463D-01
      0.5845824585D+02 -0.1811196225D+00
      0.1619836791D+02 -0.4684397556D+00
      0.5005260081D+01 -0.4461684629D+00
 S   1 1.00       0.000000000000
      0.5873185657D+00  0.1000000000D+01
 S   1 1.00       0.000000000000
      0.1876459225D+00  0.1000000000D+01
 P   3 1.00       0.000000000000
      0.1357147023D+02 -0.5884811697D-01
      0.2925737287D+01 -0.3202462476D+00
      0.7992775075D+00 -0.7532822652D+00
 P   1 1.00       0.000000000000
      0.2195434803D+00  0.1000000000D+01
 D   1 1.00       0.000000000000
      0.1000000000D+01  0.1000000000D+01
 ****
     16 0
 S   5 1.00       0.000000000000
      0.1238401694D+04  0.5517365048D-02
      0.1862900499D+03  0.4108882856D-01
      0.4225117635D+02  0.1822538213D+00
      0.1167655793D+02  0.4682845944D+00
      0.3593050648D+01  0.4457581734D+00
 S   1 1.00       0.000000000000
      0.4024514736D+00  0.1000000000D+01
 S   1 1.00       0.000000000000
      0.1309018267D+00  0.1000000000D+01
 P   3 1.00       0.000000000000
      0.9468097062D+01  0.5688833201D-01
      0.2010354514D+01  0.3129405934D+00
      0.5477100471D+00  0.7606501651D+00
 P   1 1.00       0.000000000000
      0.1526861379D+00  0.1000000000D+01
 D   1 1.00       0.000000000000
      0.8000000000D+00  0.1000000000D+01
 ****
     17 0
 S   5 1.00       0.000000000000
      0.1238401694D+04  0.5517365048D-02
      0.1862900499D+03  0.4108882856D-01
      0.4225117635D+02  0.1822538213D+00
      0.1167655793D+02  0.4682845944D+00
      0.3593050648D+01  0.4457581734D+00
 S   1 1.00       0.000000000000
      0.4024514736D+00  0.1000000000D+01
 S   1 1.00       0.000000000000
      0.1309018267D+00  0.1000000000D+01
 P   3 1.00       0.000000000000
      0.9468097062D+01  0.5688833201D-01
      0.2010354514D+01  0.3129405934D+00
      0.5477100471D+00  0.7606501651D+00
 P   1 1.00       0.000000000000
      0.1526861379D+00  0.1000000000D+01
 D   1 1.00       0.000000000000
      0.8000000000D+00  0.1000000000D+01
 ****
     18 0
 S   5 1.00       0.000000000000
      0.1238401694D+04  0.5517365048D-02
      0.1862900499D+03  0.4108882856D-01
      0.4225117635D+02  0.1822538213D+00
      0.1167655793D+02  0.4682845944D+00
      0.3593050648D+01  0.4457581734D+00
 S   1 1.00       0.000000000000
      0.4024514736D+00  0.1000000000D+01
 S   1 1.00       0.000000000000
      0.1309018267D+00  0.1000000000D+01
 P   3 1.00       0.000000000000
      0.9468097062D+01  0.5688833201D-01
      0.2010354514D+01  0.3129405934D+00
      0.5477100471D+00  0.7606501651D+00
 P   1 1.00       0.000000000000
      0.1526861379D+00  0.1000000000D+01
 D   1 1.00       0.000000000000
      0.8000000000D+00  0.1000000000D+01
 ****
     19 0
 S   5 1.00       0.000000000000
      0.1238401694D+04  0.5517365048D-02
      0.1862900499D+03  0.4108882856D-01
      0.4225117635D+02  0.1822538213D+00
      0.1167655793D+02  0.4682845944D+00
      0.3593050648D+01  0.4457581734D+00
 S   1 1.00       0.000000000000
      0.4024514736D+00  0.1000000000D+01
 S   1 1.00       0.000000000000
      0.1309018267D+00  0.1000000000D+01
 P   3 1.00       0.000000000000
      0.9468097062D+01  0.5688833201D-01
      0.2010354514D+01  0.3129405934D+00
      0.5477100471D+00  0.7606501651D+00
 P   1 1.00       0.000000000000
      0.1526861379D+00  0.1000000000D+01
 D   1 1.00       0.000000000000
      0.8000000000D+00  0.1000000000D+01
 ****
     20 0
 S   5 1.00       0.000000000000
      0.1238401694D+04  0.5517365048D-02
      0.1862900499D+03  0.4108882856D-01
      0.4225117635D+02  0.1822538213D+00
      0.1167655793D+02  0.4682845944D+00
      0.3593050648D+01  0.4457581734D+00
 S   1 1.00       0.000000000000
      0.4024514736D+00  0.1000000000D+01
 S   1 1.00       0.000000000000
      0.1309018267D+00  0.1000000000D+01
 P   3 1.00       0.000000000000
      0.9468097062D+01  0.5688833201D-01
      0.2010354514D+01  0.3129405934D+00
      0.5477100471D+00  0.7606501651D+00
 P   1 1.00       0.000000000000
      0.1526861379D+00  0.1000000000D+01
 D   1 1.00       0.000000000000
      0.8000000000D+00  0.1000000000D+01
 ****
     21 0
 S   5 1.00       0.000000000000
      0.1044982757D+05  0.5426595379D-02
      0.1571736522D+04  0.4062637813D-01
      0.3571206552D+03  0.1835974785D+00
      0.1002518594D+03  0.4743894877D+00
      0.3081272755D+02  0.4373518110D+00
 S   3 1.00       0.000000000000
      0.5192378943D+02 -0.9275415485D-01
      0.5704576098D+01  0.5638082554D+00
      0.2350837681D+01  0.5036704463D+00
 S   1 1.00       0.000000000000
      0.4460512467D+00  0.1000000000D+01
 S   1 1.00       0.000000000000
      0.1684885619D+00  0.1000000000D+01
 P   5 1.00       0.000000000000
      0.3076679057D+03 -0.8879702559D-02
      0.7210201552D+02 -0.6428407172D-01
      0.2253268026D+02 -0.2428873974D+00
      0.7899176544D+01 -0.4834083637D+00
      0.2876726832D+01 -0.3895256388D+00
 P   1 1.00       0.000000000000
      0.7745936396D+00  0.1000000000D+01
 P   1 1.00       0.000000000000
      0.2103769970D+00  0.1000000000D+01
 D   1 1.00       0.000000000000
      0.6500000000D+00  0.1000000000D+01
 ****
     22 0
 S   5 1.00       0.000000000000
      0.1238401694D+04  0.5517365048D-02
      0.1862900499D+03  0.4108882856D-01
      0.4225117635D+02  0.1822538213D+00
      0.1167655793D+02  0.4682845944D+00
      0.3593050648D+01  0.4457581734D+00
 S   1 1.00       0.000000000000
      0.4024514736D+00  0.1000000000D+01
 S   1 1.00       0.000000000000
      0.1309018267D+00  0.1000000000D+01
 P   3 1.00       0.000000000000
      0.9468097062D+01  0.5688833201D-01
      0.2010354514D+01  0.3129405934D+00
      0.5477100471D+00  0.7606501651D+00
 P   1 1.00       0.000000000000
      0.1526861379D+00  0.1000000000D+01
 D   1 1.00       0.000000000000
      0.8000000000D+00  0.1000000000D+01
 ****
     23 0
 S   5 1.00       0.000000000000
      0.1238401694D+04  0.5517365048D-02
      0.1862900499D+03  0.4108882856D-01
      0.4225117635D+02  0.1822538213D+00
      0.1167655793D+02  0.4682845944D+00
      0.3593050648D+01  0.4457581734D+00
 S   1 1.00       0.000000000000
      0.4024514736D+00  0.1000000000D+01
 S   1 1.00       0.000000000000
      0.1309018267D+00  0.1000000000D+01
 P   3 1.00       0.000000000000
      0.9468097062D+01  0.5688833201D-01
      0.2010354514D+01  0.3129405934D+00
      0.5477100471D+00  0.7606501651D+00
 P   1 1.00       0.000000000000
      0.1526861379D+00  0.1000000000D+01
 D   1 1.00       0.000000000000
      0.8000000000D+00  0.1000000000D+01
 ****
     24 0
 S   5 1.00       0.000000000000
      0.2266176779D+04 -0.5389350392D-02
      0.3408701019D+03 -0.4023472139D-01
      0.7736313517D+02 -0.1800818421D+00
      0.2147964494D+02 -0.4682885766D+00
      0.6658943312D+01 -0.4469261716D+00
 S   1 1.00       0.000000000000
      0.8097597567D+00  0.1000000000D+01
 S   1 1.00       0.000000000000
      0.2553077223D+00  0.1000000000D+01
 P   3 1.00       0.000000000000
      0.1772150432D+02  0.6263024876D-01
      0.3863550544D+01  0.3333113848D+00
      0.1048092088D+01  0.7414863831D+00
 P   1 1.00       0.000000000000
      0.2764154441D+00  0.1000000000D+01
 D   1 1.00       0.000000000000
      0.1200000000D+01  0.1000000000D+01
 ****
     25 0
 S   3 1.00       0.000000000000
      0.1301070100D+02  0.3348548481D-01
      0.1962257200D+01  0.2347218709D+00
      0.4445379600D+00  0.8137702853D+00
 S   1 1.00       0.000000000000
      0.1219496200D+00  0.1000000000D+01
 P   1 1.00       0.000000000000
      0.8000000000D+00  0.1000000000D+01
 ****
     26 0
 S   3 1.00       0.000000000000
      0.1301070100D+02  0.3348548481D-01
      0.1962257200D+01  0.2347218709D+00
      0.4445379600D+00  0.8137702853D+00
 S   1 1.00       0.000000000000
      0.1219496200D+00  0.1000000000D+01
 P   1 1.00       0.000000000000
      0.8000000000D+00  0.1000000000D+01
 ****
     27 0
 S   3 1.00       0.000000000000
      0.1301070100D+02  0.3348548481D-01
      0.1962257200D+01  0.2347218709D+00
      0.4445379600D+00  0.8137702853D+00
 S   1 1.00       0.000000000000
      0.1219496200D+00  0.1000000000D+01
 P   1 1.00       0.000000000000
      0.8000000000D+00  0.1000000000D+01
 ****
     28 0
 S   3 1.00       0.000000000000
      0.1301070100D+02  0.3348548481D-01
      0.1962257200D+01  0.2347218709D+00
      0.4445379600D+00  0.8137702853D+00
 S   1 1.00       0.000000000000
      0.1219496200D+00  0.1000000000D+01
 P   1 1.00       0.000000000000
      0.8000000000D+00  0.1000000000D+01
 ****
     29 0
 S   3 1.00       0.000000000000
      0.1301070100D+02  0.3348548481D-01
      0.1962257200D+01  0.2347218709D+00
      0.4445379600D+00  0.8137702853D+00
 S   1 1.00       0.000000000000
      0.1219496200D+00  0.1000000000D+01
 P   1 1.00       0.000000000000
      0.8000000000D+00  0.1000000000D+01
 ****
     30 0
 S   3 1.00       0.000000000000
      0.1301070100D+02  0.3348548481D-01
      0.1962257200D+01  0.2347218709D+00
      0.4445379600D+00  0.8137702853D+00
 S   1 1.00       0.000000000000
      0.1219496200D+00  0.1000000000D+01
 P   1 1.00       0.000000000000
      0.8000000000D+00  0.1000000000D+01
 ****
     31 0
 S   3 1.00       0.000000000000
      0.1301070100D+02  0.3348548481D-01
      0.1962257200D+01  0.2347218709D+00
      0.4445379600D+00  0.8137702853D+00
 S   1 1.00       0.000000000000
      0.1219496200D+00  0.1000000000D+01
 P   1 1.00       0.000000000000
      0.8000000000D+00  0.1000000000D+01
 ****
     32 0
 S   3 1.00       0.000000000000
      0.1301070100D+02  0.3348548481D-01
      0.1962257200D+01  0.2347218709D+00
      0.4445379600D+00  0.8137702853D+00
 S   1 1.00       0.000000000000
      0.1219496200D+00  0.1000000000D+01
 P   1 1.00       0.000000000000
      0.8000000000D+00  0.1000000000D+01
 ****
     33 0
 S   3 1.00       0.000000000000
      0.1301070100D+02  0.3348548481D-01
      0.1962257200D+01  0.2347218709D+00
      0.4445379600D+00  0.8137702853D+00
 S   1 1.00       0.000000000000
      0.1219496200D+00  0.1000000000D+01
 P   1 1.00       0.000000000000
      0.8000000000D+00  0.1000000000D+01
 ****
     34 0
 S   3 1.00       0.000000000000
      0.1301070100D+02  0.3348548481D-01
      0.1962257200D+01  0.2347218709D+00
      0.4445379600D+00  0.8137702853D+00
 S   1 1.00       0.000000000000
      0.1219496200D+00  0.1000000000D+01
 P   1 1.00       0.000000000000
      0.8000000000D+00  0.1000000000D+01
 ****
     35 0
 S   3 1.00       0.000000000000
      0.1301070100D+02  0.3348548481D-01
      0.1962257200D+01  0.2347218709D+00
      0.4445379600D+00  0.8137702853D+00
 S   1 1.00       0.000000000000
      0.1219496200D+00  0.1000000000D+01
 P   1 1.00       0.000000000000
      0.8000000000D+00  0.1000000000D+01
 ****
     36 0
 S   3 1.00       0.000000000000
      0.1301070100D+02  0.3348548481D-01
      0.1962257200D+01  0.2347218709D+00
      0.4445379600D+00  0.8137702853D+00
 S   1 1.00       0.000000000000
      0.1219496200D+00  0.1000000000D+01
 P   1 1.00       0.000000000000
      0.8000000000D+00  0.1000000000D+01
 ****
     37 0
 S   3 1.00       0.000000000000
      0.1301070100D+02  0.3348548481D-01
      0.1962257200D+01  0.2347218709D+00
      0.4445379600D+00  0.8137702853D+00
 S   1 1.00       0.000000000000
      0.1219496200D+00  0.1000000000D+01
 P   1 1.00       0.000000000000
      0.8000000000D+00  0.1000000000D+01
 ****

   423 basis functions,   758 primitive gaussians,   449 cartesian basis functions
   103 alpha electrons      103 beta electrons
       nuclear repulsion energy      2292.3769074235 Hartrees.
 NAtoms=   37 NActive=   37 NUniq=   37 SFac= 1.00D+00 NAtFMM=   60 NAOKFM=F Big=F
   1 Symmetry operations used in ECPInt.
 ECPInt:  NShTT=   18336 NPrTT=   71641 LenC2=   14288 LenP2D=   36435.
 LDataN:  DoStor=T MaxTD1= 4 Len=   56
 ExpMin= 1.22D-01 ExpMax= 1.13D+05 ExpMxC= 1.70D+04 IAcc=3 IRadAn=         5 AccDes= 0.00D+00
 Harris functional with IExCor=  402 and IRadAn=       5 diagonalized for initial guess.
 HarFok:  IExCor=  402 AccDes= 0.00D+00 IRadAn=         5 IDoV= 1 UseB2=F ITyADJ=14
 ICtDFT=  3500011 ScaDFX=  1.000000  1.000000  1.000000  1.000000
 FoFCou: FMM=F IPFlag=           0 FMFlag=      100000 FMFlg1=           0
         NFxFlg=           0 DoJE=T BraDBF=F KetDBF=T FulRan=T
         wScrn=  0.000000 ICntrl=       500 IOpCl=  0 I1Cent=   200000004 NGrid=           0
         NMat0=    1 NMatS0=      1 NMatT0=    0 NMatD0=    1 NMtDS0=    0 NMtDT0=    0
 Symmetry not used in FoFCou.
 A Direct SCF calculation will be performed.
 ReadGW:  IGet=1 IStart=        1108 Next=        1108 LGW=           0.
 Using stored XC quadrature information.
 IHM=  1 FMM=F JS2E= 0 NPI=  -1 NP=   8 NAt=    37 NB=    423 NM=     1 NOp=1 NPX=   3 ICOK=F
 Two-electron integral symmetry not used.
 Closed shell SCF:
 Using DIIS extrapolation, IDIIS=  1040.
 NBasis=      423 NAllTT=   101025 NAllSq=   201601 NWIIB=         0
 INEq=       1171 IIJ=        1171 ID=         1763
 IDD=      203364 IDA=        1763 IDB=      102788 IF=       203813
 IFF=      405414 IFA=      203813 IFB=      304838 IScr2=    405863
 IV=       410353 IBuf2E=     1621 IMin=     426994
 IOpCl=         0
 NGot=  1073741824 LenX=  1073331472 LenY=  1073129422
 Requested convergence on RMS density matrix=1.00D-08 within 128 cycles.
 Requested convergence on MAX density matrix=1.00D-06.
 Requested convergence on             energy=1.00D-06.
 No special actions if energy rises.
 Fock matrices will be formed incrementally for  20 cycles.
 Selected VarAcc= 4.
 Integral accuracy reduced to 1.0D-05 until final iterations.

 Cycle   1  Pass 0  IDiag  1:
 One-electron energy=-0.101548374693D+05
 FoFJK:  IHMeth= 1 ICntrl=       0 DoSepK=F KAlg= 0 I1Cent=           0 FoldK=F
 IRaf= 690000000 NMat=       1 IRICut=       1 DoRegI=T DoRafI=F ISym2E= 0 IDoP0=0 IntGTp=1.
 FoFCou: FMM=F IPFlag=           0 FMFlag=      100000 FMFlg1=           0
         NFxFlg=           0 DoJE=F BraDBF=F KetDBF=F FulRan=T
         wScrn=  0.000000 ICntrl=         0 IOpCl=  0 I1Cent=           0 NGrid=           0
         NMat0=    1 NMatS0=      1 NMatT0=    0 NMatD0=    1 NMtDS0=    0 NMtDT0=    0
 Symmetry not used in FoFCou.
 Calling FoFDFT with Acc= 0.00D+00 ICntrl=  400011 IRadAn=       4.
 IMat=  1 1/2 <PG(P)>=        4031.197198713161
 Remaining memory in FofDFT     1023.47 Mw
 CkSvGd:  ISavGI=        -1 IRadAn=       4 IRASav=       5 ISavGd=        -1.
 CalDSu-InSpLW:  IPartL=    0 NPrtUS=    8 NPrtUL=    1 DoSpLW=F IThBeg=    0 IThEnd=    7 NThAct=    8.
 CalDSu:  NPrtUS=   8 ThrOK=T IAlg=1 DoDPD=T LenP=      101025 LenD1P=             0 GPUOK=F
          ISkipM=0 DoSpLW=F IThBeg=    0 IThEnd=    7.
 IPart=  0 IRanGd=          0 ScrnBf=T ScrnGd=T RCrit=4.00D+00 DoMicB=T.
 IPart=  1        33438 of        40506 points in      88 batches and      254 microbatches, Max-NSigAt=      37 Max-NSgAt2=      37
 IPart=  3        33533 of        39612 points in      83 batches and      221 microbatches, Max-NSigAt=      37 Max-NSgAt2=      37
 IPart=  6        32535 of        38976 points in      84 batches and      228 microbatches, Max-NSigAt=      37 Max-NSgAt2=      37
 IPart=  4        32689 of        38342 points in      83 batches and      225 microbatches, Max-NSigAt=      37 Max-NSgAt2=      37
 IPart=  5        32660 of        37586 points in      78 batches and      250 microbatches, Max-NSigAt=      37 Max-NSgAt2=      37
 IPart=  2        31368 of        35536 points in      75 batches and      261 microbatches, Max-NSigAt=      37 Max-NSgAt2=      37
 IPart=  7        33660 of        39898 points in      85 batches and      228 microbatches, Max-NSigAt=      37 Max-NSgAt2=      37
 IPart=  0        32561 of        38746 points in      83 batches and      231 microbatches, Max-NSigAt=      37 Max-NSgAt2=      37
 IMat=  1 Ex=        -199.043791218417 Ec=          -9.884612691062
 1/2 <PJ(P)> + E(ex) + E(corr)=        3822.268794803683
 IMat=  1 EOne=-0.101548374693D+05 ETwo= 0.382226879480D+04 Energy=-0.633256867452D+04
 1/2 <PG(P)>=        4031.197198713161
 Ex=        -199.043791218417 Ec=          -9.884612691062
 1/2 <PG(P)> + E(ex) + E(corr)=        3822.268794803683
 E= -4040.19176709683    
 DIIS: error= 3.86D-02 at cycle   1 NSaved=   1.
 NSaved= 1 IEnMin= 1 EnMin= -4040.19176709683     IErMin= 1 ErrMin= 3.86D-02
 ErrMax= 3.86D-02  0.00D+00 EMaxC= 1.00D-01 BMatC= 5.80D-01 BMatP= 5.80D-01
 IDIUse=3 WtCom= 6.14D-01 WtEn= 3.86D-01
 Coeff-Com:  0.100D+01
 Coeff-En:   0.100D+01
 Coeff:      0.100D+01
 Gap=     0.328 Goal=   None    Shift=    0.000
 GapD=    0.328 DampG=1.000 DampE=0.500 DampFc=0.5000 IDamp=-1.
 RMSDP=5.50D-03 MaxDP=2.54D-01              OVMax= 2.87D-01

 Cycle   2  Pass 0  IDiag  1:
 One-electron energy=-0.101467244706D+05
 RMSU=  2.72D-03    CP:  9.82D-01
 Calling FoFDFT with Acc= 0.00D+00 ICntrl=  100011 IRadAn=       4.
 IMat=  1 1/2 <PG(P)>=        4021.939585720756
 Remaining memory in FofDFT     1023.51 Mw
 CkSvGd:  ISavGI=        -1 IRadAn=       4 IRASav=       5 ISavGd=        -1.
 CalDSu-InSpLW:  IPartL=    0 NPrtUS=    8 NPrtUL=    1 DoSpLW=F IThBeg=    0 IThEnd=    7 NThAct=    8.
 CalDSu:  NPrtUS=   8 ThrOK=T IAlg=1 DoDPD=T LenP=      101025 LenD1P=             0 GPUOK=F
          ISkipM=0 DoSpLW=F IThBeg=    0 IThEnd=    7.
 IPart=  0 IRanGd=          0 ScrnBf=T ScrnGd=T RCrit=4.00D+00 DoMicB=T.
 IPart=  2        34041 of        39808 points in      84 batches and      247 microbatches, Max-NSigAt=      37 Max-NSgAt2=      37
 IPart=  0        32918 of        38954 points in      83 batches and      237 microbatches, Max-NSigAt=      37 Max-NSgAt2=      37
 IPart=  3        32702 of        39178 points in      84 batches and      226 microbatches, Max-NSigAt=      37 Max-NSgAt2=      37
 IPart=  4        32630 of        38648 points in      82 batches and      224 microbatches, Max-NSigAt=      37 Max-NSgAt2=      37
 IPart=  1        33037 of        38480 points in      81 batches and      235 microbatches, Max-NSigAt=      37 Max-NSgAt2=      37
 IPart=  7        31935 of        37316 points in      82 batches and      270 microbatches, Max-NSigAt=      37 Max-NSgAt2=      37
 IPart=  6        32236 of        38026 points in      82 batches and      236 microbatches, Max-NSigAt=      37 Max-NSgAt2=      37
 IPart=  5        32945 of        38792 points in      81 batches and      223 microbatches, Max-NSigAt=      37 Max-NSgAt2=      37
 IMat=  1 Ex=        -198.057530463771 Ec=          -9.843761465684
 1/2 <PJ(P)> + E(ex) + E(corr)=        3814.038293791300
 IMat=  1 EOne=-0.101467244706D+05 ETwo= 0.381403829379D+04 Energy=-0.633268617678D+04
 1/2 <PG(P)>=        4021.939585720756
 Ex=        -198.057530463771 Ec=          -9.843761465684
 1/2 <PG(P)> + E(ex) + E(corr)=        3814.038293791300
 E= -4040.30926935539     Delta-E=       -0.117502258558 Rises=F Damp=T
 DIIS: error= 1.18D-02 at cycle   2 NSaved=   2.
 NSaved= 2 IEnMin= 2 EnMin= -4040.30926935539     IErMin= 2 ErrMin= 1.18D-02
 ErrMax= 1.18D-02  0.00D+00 EMaxC= 1.00D-01 BMatC= 9.85D-02 BMatP= 5.80D-01
 IDIUse=3 WtCom= 8.82D-01 WtEn= 1.18D-01
 Coeff-Com:  0.218D+00 0.782D+00
 Coeff-En:   0.370D+00 0.630D+00
 Coeff:      0.236D+00 0.764D+00
 Gap=     0.166 Goal=   None    Shift=    0.000
 RMSDP=1.83D-03 MaxDP=8.33D-02 DE=-1.18D-01 OVMax= 2.16D-01

 Cycle   3  Pass 0  IDiag  1:
 One-electron energy=-0.101433868491D+05
 RMSU=  1.69D-03    CP:  9.68D-01  7.67D-01
 Calling FoFDFT with Acc= 0.00D+00 ICntrl=  400011 IRadAn=       4.
 IMat=  1 1/2 <PG(P)>=        4018.248029417150
 Remaining memory in FofDFT     1023.47 Mw
 CkSvGd:  ISavGI=        -1 IRadAn=       4 IRASav=       5 ISavGd=        -1.
 CalDSu-InSpLW:  IPartL=    0 NPrtUS=    8 NPrtUL=    1 DoSpLW=F IThBeg=    0 IThEnd=    7 NThAct=    8.
 CalDSu:  NPrtUS=   8 ThrOK=T IAlg=1 DoDPD=T LenP=      101025 LenD1P=             0 GPUOK=F
          ISkipM=0 DoSpLW=F IThBeg=    0 IThEnd=    7.
 IPart=  0 IRanGd=          0 ScrnBf=T ScrnGd=T RCrit=4.00D+00 DoMicB=T.
 IPart=  5        33167 of        40866 points in      88 batches and      211 microbatches, Max-NSigAt=      37 Max-NSgAt2=      37
 IPart=  7        33177 of        39218 points in      82 batches and      241 microbatches, Max-NSigAt=      37 Max-NSgAt2=      37
 IPart=  6        32440 of        39096 points in      85 batches and      212 microbatches, Max-NSigAt=      37 Max-NSgAt2=      37
 IPart=  2        33113 of        38166 points in      80 batches and      251 microbatches, Max-NSigAt=      37 Max-NSgAt2=      37
 IPart=  3        32425 of        38266 points in      83 batches and      260 microbatches, Max-NSigAt=      37 Max-NSgAt2=      37
 IPart=  0        33127 of        38350 points in      83 batches and      235 microbatches, Max-NSigAt=      37 Max-NSgAt2=      37
 IPart=  4        32387 of        37214 points in      79 batches and      234 microbatches, Max-NSigAt=      37 Max-NSgAt2=      37
 IPart=  1        32608 of        38026 points in      79 batches and      254 microbatches, Max-NSigAt=      37 Max-NSgAt2=      37
 IMat=  1 Ex=        -198.001595778693 Ec=          -9.835874165113
 1/2 <PJ(P)> + E(ex) + E(corr)=        3810.410559473343
 IMat=  1 EOne=-0.101433868491D+05 ETwo= 0.381041055947D+04 Energy=-0.633297628961D+04
 1/2 <PG(P)>=        4018.248029417150
 Ex=        -198.001595778693 Ec=          -9.835874165113
 1/2 <PG(P)> + E(ex) + E(corr)=        3810.410559473343
 E= -4040.59938218962     Delta-E=       -0.290112834229 Rises=F Damp=F
 DIIS: error= 1.32D-02 at cycle   3 NSaved=   3.
 NSaved= 3 IEnMin= 3 EnMin= -4040.59938218962     IErMin= 2 ErrMin= 1.18D-02
 ErrMax= 1.32D-02  0.00D+00 EMaxC= 1.00D-01 BMatC= 9.66D-02 BMatP= 9.85D-02
 IDIUse=3 WtCom= 8.68D-01 WtEn= 1.32D-01
 Coeff-Com:  0.570D-01 0.490D+00 0.453D+00
 Coeff-En:   0.000D+00 0.000D+00 0.100D+01
 Coeff:      0.494D-01 0.425D+00 0.526D+00
 Gap=     0.139 Goal=   None    Shift=    0.000
 RMSDP=1.05D-03 MaxDP=5.14D-02 DE=-2.90D-01 OVMax= 9.45D-02

 Cycle   4  Pass 0  IDiag  1:
 One-electron energy=-0.101467318558D+05
 RMSU=  7.54D-04    CP:  9.71D-01  8.96D-01  6.20D-01
 Calling FoFDFT with Acc= 0.00D+00 ICntrl=  400011 IRadAn=       4.
 IMat=  1 1/2 <PG(P)>=        4021.628869563277
 Remaining memory in FofDFT     1023.47 Mw
 CkSvGd:  ISavGI=        -1 IRadAn=       4 IRASav=       5 ISavGd=        -1.
 CalDSu-InSpLW:  IPartL=    0 NPrtUS=    8 NPrtUL=    1 DoSpLW=F IThBeg=    0 IThEnd=    7 NThAct=    8.
 CalDSu:  NPrtUS=   8 ThrOK=T IAlg=1 DoDPD=T LenP=      101025 LenD1P=             0 GPUOK=F
          ISkipM=0 DoSpLW=F IThBeg=    0 IThEnd=    7.
 IPart=  0 IRanGd=          0 ScrnBf=T ScrnGd=T RCrit=4.00D+00 DoMicB=T.
 IPart=  2        32853 of        37664 points in      79 batches and      245 microbatches, Max-NSigAt=      37 Max-NSgAt2=      37
 IPart=  5        32796 of        39648 points in      85 batches and      239 microbatches, Max-NSigAt=      37 Max-NSgAt2=      37
 IPart=  0        33299 of        39166 points in      81 batches and      210 microbatches, Max-NSigAt=      37 Max-NSgAt2=      37
 IPart=  6        32192 of        38038 points in      81 batches and      215 microbatches, Max-NSigAt=      37 Max-NSgAt2=      37
 IPart=  1        33768 of        41352 points in      91 batches and      238 microbatches, Max-NSigAt=      37 Max-NSgAt2=      37
 IPart=  7        32281 of        37610 points in      80 batches and      258 microbatches, Max-NSigAt=      37 Max-NSgAt2=      37
 IPart=  4        32764 of        38206 points in      80 batches and      238 microbatches, Max-NSigAt=      37 Max-NSgAt2=      37
 IPart=  3        32491 of        37518 points in      82 batches and      255 microbatches, Max-NSigAt=      37 Max-NSgAt2=      37
 IMat=  1 Ex=        -198.094610620235 Ec=          -9.844247719380
 1/2 <PJ(P)> + E(ex) + E(corr)=        3813.690011223662
 IMat=  1 EOne=-0.101467318558D+05 ETwo= 0.381369001122D+04 Energy=-0.633304184457D+04
 1/2 <PG(P)>=        4021.628869563277
 Ex=        -198.094610620235 Ec=          -9.844247719380
 1/2 <PG(P)> + E(ex) + E(corr)=        3813.690011223662
 E= -4040.66493714535     Delta-E=       -0.065554955732 Rises=F Damp=F
 DIIS: error= 6.45D-03 at cycle   4 NSaved=   4.
 NSaved= 4 IEnMin= 4 EnMin= -4040.66493714535     IErMin= 4 ErrMin= 6.45D-03
 ErrMax= 6.45D-03  0.00D+00 EMaxC= 1.00D-01 BMatC= 2.12D-02 BMatP= 9.66D-02
 IDIUse=3 WtCom= 9.35D-01 WtEn= 6.45D-02
 Coeff-Com:  0.878D-02 0.116D+00 0.333D+00 0.542D+00
 Coeff-En:   0.000D+00 0.000D+00 0.225D+00 0.775D+00
 Coeff:      0.822D-02 0.109D+00 0.326D+00 0.557D+00
 Gap=     0.142 Goal=   None    Shift=    0.000
 RMSDP=4.18D-04 MaxDP=1.81D-02 DE=-6.56D-02 OVMax= 3.45D-02

 Cycle   5  Pass 0  IDiag  1:
 One-electron energy=-0.101461193445D+05
 RMSU=  1.85D-04    CP:  9.70D-01  8.61D-01  7.43D-01  6.09D-01
 Calling FoFDFT with Acc= 0.00D+00 ICntrl=  400011 IRadAn=       4.
 IMat=  1 1/2 <PG(P)>=        4020.988689449650
 Remaining memory in FofDFT     1023.47 Mw
 CkSvGd:  ISavGI=        -1 IRadAn=       4 IRASav=       5 ISavGd=        -1.
 CalDSu-InSpLW:  IPartL=    0 NPrtUS=    8 NPrtUL=    1 DoSpLW=F IThBeg=    0 IThEnd=    7 NThAct=    8.
 CalDSu:  NPrtUS=   8 ThrOK=T IAlg=1 DoDPD=T LenP=      101025 LenD1P=             0 GPUOK=F
          ISkipM=0 DoSpLW=F IThBeg=    0 IThEnd=    7.
 IPart=  0 IRanGd=          0 ScrnBf=T ScrnGd=T RCrit=4.00D+00 DoMicB=T.
 IPart=  6        32056 of        37844 points in      80 batches and      253 microbatches, Max-NSigAt=      37 Max-NSgAt2=      37
 IPart=  4        32961 of        38486 points in      82 batches and      274 microbatches, Max-NSigAt=      37 Max-NSgAt2=      37
 IPart=  3        32407 of        37754 points in      81 batches and      212 microbatches, Max-NSigAt=      37 Max-NSgAt2=      37
 IPart=  5        32609 of        38150 points in      81 batches and      229 microbatches, Max-NSigAt=      37 Max-NSgAt2=      37
 IPart=  2        32119 of        37696 points in      81 batches and      257 microbatches, Max-NSigAt=      37 Max-NSgAt2=      37
 IPart=  7        33282 of        39580 points in      85 batches and      250 microbatches, Max-NSigAt=      37 Max-NSgAt2=      37
 IPart=  1        32501 of        37518 points in      78 batches and      224 microbatches, Max-NSigAt=      37 Max-NSgAt2=      37
 IPart=  0        34509 of        42174 points in      91 batches and      199 microbatches, Max-NSigAt=      37 Max-NSgAt2=      37
 IMat=  1 Ex=        -198.086433418312 Ec=          -9.842758510308
 1/2 <PJ(P)> + E(ex) + E(corr)=        3813.059497521029
 IMat=  1 EOne=-0.101461193445D+05 ETwo= 0.381305949752D+04 Energy=-0.633305984702D+04
 1/2 <PG(P)>=        4020.988689449650
 Ex=        -198.086433418312 Ec=          -9.842758510308
 1/2 <PG(P)> + E(ex) + E(corr)=        3813.059497521029
 E= -4040.68293959954     Delta-E=       -0.018002454182 Rises=F Damp=F
 DIIS: error= 1.16D-03 at cycle   5 NSaved=   5.
 NSaved= 5 IEnMin= 5 EnMin= -4040.68293959954     IErMin= 5 ErrMin= 1.16D-03
 ErrMax= 1.16D-03  0.00D+00 EMaxC= 1.00D-01 BMatC= 7.72D-04 BMatP= 2.12D-02
 IDIUse=3 WtCom= 9.88D-01 WtEn= 1.16D-02
 Coeff-Com:  0.637D-03 0.175D-01 0.123D+00 0.287D+00 0.572D+00
 Coeff-En:   0.000D+00 0.000D+00 0.000D+00 0.000D+00 0.100D+01
 Coeff:      0.630D-03 0.173D-01 0.121D+00 0.283D+00 0.577D+00
 Gap=     0.142 Goal=   None    Shift=    0.000
 RMSDP=1.01D-04 MaxDP=4.74D-03 DE=-1.80D-02 OVMax= 8.62D-03

 Cycle   6  Pass 0  IDiag  1:
 One-electron energy=-0.101460005025D+05
 RMSU=  8.00D-05    CP:  9.70D-01  8.63D-01  7.40D-01  6.45D-01  7.08D-01
 Calling FoFDFT with Acc= 0.00D+00 ICntrl=  400011 IRadAn=       4.
 IMat=  1 1/2 <PG(P)>=        4020.868765150323
 Remaining memory in FofDFT     1023.47 Mw
 CkSvGd:  ISavGI=        -1 IRadAn=       4 IRASav=       5 ISavGd=        -1.
 CalDSu-InSpLW:  IPartL=    0 NPrtUS=    8 NPrtUL=    1 DoSpLW=F IThBeg=    0 IThEnd=    7 NThAct=    8.
 CalDSu:  NPrtUS=   8 ThrOK=T IAlg=1 DoDPD=T LenP=      101025 LenD1P=             0 GPUOK=F
          ISkipM=0 DoSpLW=F IThBeg=    0 IThEnd=    7.
 IPart=  0 IRanGd=          0 ScrnBf=T ScrnGd=T RCrit=4.00D+00 DoMicB=T.
 IPart=  6        30931 of        36750 points in      81 batches and      273 microbatches, Max-NSigAt=      37 Max-NSgAt2=      37
 IPart=  4        33269 of        38114 points in      80 batches and      249 microbatches, Max-NSigAt=      37 Max-NSgAt2=      37
 IPart=  2        33331 of        39228 points in      83 batches and      220 microbatches, Max-NSigAt=      37 Max-NSgAt2=      37
 IPart=  5        32619 of        37296 points in      78 batches and      237 microbatches, Max-NSigAt=      37 Max-NSgAt2=      37
 IPart=  7        33299 of        39248 points in      83 batches and      245 microbatches, Max-NSigAt=      37 Max-NSgAt2=      37
 IPart=  1        32208 of        38044 points in      81 batches and      242 microbatches, Max-NSigAt=      37 Max-NSgAt2=      37
 IPart=  0        34135 of        41488 points in      88 batches and      193 microbatches, Max-NSigAt=      37 Max-NSgAt2=      37
 IPart=  3        32652 of        39034 points in      85 batches and      239 microbatches, Max-NSigAt=      37 Max-NSgAt2=      37
 IMat=  1 Ex=        -198.086226972784 Ec=          -9.842442633586
 1/2 <PJ(P)> + E(ex) + E(corr)=        3812.940095543952
 IMat=  1 EOne=-0.101460005025D+05 ETwo= 0.381294009554D+04 Energy=-0.633306040695D+04
 1/2 <PG(P)>=        4020.868765150323
 Ex=        -198.086226972784 Ec=          -9.842442633586
 1/2 <PG(P)> + E(ex) + E(corr)=        3812.940095543952
 E= -4040.68349952933     Delta-E=       -0.000559929789 Rises=F Damp=F
 DIIS: error= 4.70D-04 at cycle   6 NSaved=   6.
 NSaved= 6 IEnMin= 6 EnMin= -4040.68349952933     IErMin= 6 ErrMin= 4.70D-04
 ErrMax= 4.70D-04  0.00D+00 EMaxC= 1.00D-01 BMatC= 1.93D-04 BMatP= 7.72D-04
 IDIUse=3 WtCom= 9.95D-01 WtEn= 4.70D-03
 Coeff-Com: -0.372D-03-0.299D-02 0.393D-01 0.120D+00 0.387D+00 0.457D+00
 Coeff-En:   0.000D+00 0.000D+00 0.000D+00 0.000D+00 0.209D+00 0.791D+00
 Coeff:     -0.370D-03-0.297D-02 0.391D-01 0.119D+00 0.386D+00 0.459D+00
 Gap=     0.141 Goal=   None    Shift=    0.000
 RMSDP=4.47D-05 MaxDP=1.49D-03 DE=-5.60D-04 OVMax= 3.89D-03

 Cycle   7  Pass 0  IDiag  1:
 One-electron energy=-0.101459674539D+05
 RMSU=  2.22D-05    CP:  9.70D-01  8.64D-01  7.41D-01  6.56D-01  7.44D-01
                    CP:  5.35D-01
 Calling FoFDFT with Acc= 0.00D+00 ICntrl=  400011 IRadAn=       4.
 IMat=  1 1/2 <PG(P)>=        4020.830527341661
 Remaining memory in FofDFT     1023.47 Mw
 CkSvGd:  ISavGI=        -1 IRadAn=       4 IRASav=       5 ISavGd=        -1.
 CalDSu-InSpLW:  IPartL=    0 NPrtUS=    8 NPrtUL=    1 DoSpLW=F IThBeg=    0 IThEnd=    7 NThAct=    8.
 CalDSu:  NPrtUS=   8 ThrOK=T IAlg=1 DoDPD=T LenP=      101025 LenD1P=             0 GPUOK=F
          ISkipM=0 DoSpLW=F IThBeg=    0 IThEnd=    7.
 IPart=  0 IRanGd=          0 ScrnBf=T ScrnGd=T RCrit=4.00D+00 DoMicB=T.
 IPart=  1        32276 of        37494 points in      80 batches and      249 microbatches, Max-NSigAt=      37 Max-NSgAt2=      37
 IPart=  3        32943 of        38892 points in      82 batches and      257 microbatches, Max-NSigAt=      37 Max-NSgAt2=      37
 IPart=  7        33298 of        38852 points in      83 batches and      231 microbatches, Max-NSigAt=      37 Max-NSgAt2=      37
 IPart=  4        33255 of        38932 points in      82 batches and      235 microbatches, Max-NSigAt=      37 Max-NSgAt2=      37
 IPart=  5        32271 of        38130 points in      82 batches and      244 microbatches, Max-NSigAt=      37 Max-NSgAt2=      37
 IPart=  0        32401 of        38468 points in      83 batches and      228 microbatches, Max-NSigAt=      37 Max-NSgAt2=      37
 IPart=  6        33026 of        39016 points in      82 batches and      224 microbatches, Max-NSigAt=      37 Max-NSgAt2=      37
 IPart=  2        32974 of        39418 points in      85 batches and      230 microbatches, Max-NSigAt=      37 Max-NSgAt2=      37
 IMat=  1 Ex=        -198.081287875804 Ec=          -9.842375263307
 1/2 <PJ(P)> + E(ex) + E(corr)=        3812.906864202550
 IMat=  1 EOne=-0.101459674539D+05 ETwo= 0.381290686420D+04 Energy=-0.633306058969D+04
 1/2 <PG(P)>=        4020.830527341661
 Ex=        -198.081287875804 Ec=          -9.842375263307
 1/2 <PG(P)> + E(ex) + E(corr)=        3812.906864202550
 E= -4040.68368226940     Delta-E=       -0.000182740070 Rises=F Damp=F
 DIIS: error= 1.46D-04 at cycle   7 NSaved=   7.
 NSaved= 7 IEnMin= 7 EnMin= -4040.68368226940     IErMin= 7 ErrMin= 1.46D-04
 ErrMax= 1.46D-04  0.00D+00 EMaxC= 1.00D-01 BMatC= 1.24D-05 BMatP= 1.93D-04
 IDIUse=3 WtCom= 9.99D-01 WtEn= 1.46D-03
 Coeff-Com: -0.142D-03-0.317D-02 0.121D-01 0.427D-01 0.177D+00 0.272D+00
 Coeff-Com:  0.500D+00
 Coeff-En:   0.000D+00 0.000D+00 0.000D+00 0.000D+00 0.000D+00 0.000D+00
 Coeff-En:   0.100D+01
 Coeff:     -0.142D-03-0.317D-02 0.121D-01 0.427D-01 0.177D+00 0.271D+00
 Coeff:      0.500D+00
 Gap=     0.141 Goal=   None    Shift=    0.000
 RMSDP=1.06D-05 MaxDP=4.63D-04 DE=-1.83D-04 OVMax= 9.66D-04

 Cycle   8  Pass 0  IDiag  1:
 One-electron energy=-0.101459959400D+05
 RMSU=  6.74D-06    CP:  9.70D-01  8.63D-01  7.41D-01  6.57D-01  7.43D-01
                    CP:  5.55D-01  6.52D-01
 Calling FoFDFT with Acc= 0.00D+00 ICntrl=  400011 IRadAn=       4.
 IMat=  1 1/2 <PG(P)>=        4020.860618480845
 Remaining memory in FofDFT     1023.47 Mw
 CkSvGd:  ISavGI=        -1 IRadAn=       4 IRASav=       5 ISavGd=        -1.
 CalDSu-InSpLW:  IPartL=    0 NPrtUS=    8 NPrtUL=    1 DoSpLW=F IThBeg=    0 IThEnd=    7 NThAct=    8.
 CalDSu:  NPrtUS=   8 ThrOK=T IAlg=1 DoDPD=T LenP=      101025 LenD1P=             0 GPUOK=F
          ISkipM=0 DoSpLW=F IThBeg=    0 IThEnd=    7.
 IPart=  0 IRanGd=          0 ScrnBf=T ScrnGd=T RCrit=4.00D+00 DoMicB=T.
 IPart=  1        33271 of        40170 points in      86 batches and      232 microbatches, Max-NSigAt=      37 Max-NSgAt2=      37
 IPart=  7        31785 of        37054 points in      81 batches and      254 microbatches, Max-NSigAt=      37 Max-NSgAt2=      37
 IPart=  6        32466 of        37432 points in      78 batches and      241 microbatches, Max-NSigAt=      37 Max-NSgAt2=      37
 IPart=  0        32821 of        38516 points in      82 batches and      221 microbatches, Max-NSigAt=      37 Max-NSgAt2=      37
 IPart=  2        33912 of        39962 points in      83 batches and      244 microbatches, Max-NSigAt=      37 Max-NSgAt2=      37
 IPart=  5        33190 of        39950 points in      85 batches and      226 microbatches, Max-NSigAt=      37 Max-NSgAt2=      37
 IPart=  4        32403 of        37814 points in      81 batches and      240 microbatches, Max-NSigAt=      37 Max-NSgAt2=      37
 IPart=  3        32596 of        38304 points in      83 batches and      240 microbatches, Max-NSigAt=      37 Max-NSgAt2=      37
 IMat=  1 Ex=        -198.082843994434 Ec=          -9.842435604457
 1/2 <PJ(P)> + E(ex) + E(corr)=        3812.935338881954
 IMat=  1 EOne=-0.101459959400D+05 ETwo= 0.381293533888D+04 Energy=-0.633306060107D+04
 1/2 <PG(P)>=        4020.860618480845
 Ex=        -198.082843994434 Ec=          -9.842435604457
 1/2 <PG(P)> + E(ex) + E(corr)=        3812.935338881954
 E= -4040.68369364982     Delta-E=       -0.000011380429 Rises=F Damp=F
 DIIS: error= 2.99D-05 at cycle   8 NSaved=   8.
 NSaved= 8 IEnMin= 8 EnMin= -4040.68369364982     IErMin= 8 ErrMin= 2.99D-05
 ErrMax= 2.99D-05  0.00D+00 EMaxC= 1.00D-01 BMatC= 1.12D-06 BMatP= 1.24D-05
 IDIUse=1 WtCom= 1.00D+00 WtEn= 0.00D+00
 Coeff-Com: -0.835D-05-0.156D-02 0.338D-02 0.126D-01 0.647D-01 0.109D+00
 Coeff-Com:  0.275D+00 0.537D+00
 Coeff:     -0.835D-05-0.156D-02 0.338D-02 0.126D-01 0.647D-01 0.109D+00
 Coeff:      0.275D+00 0.537D+00
 Gap=     0.141 Goal=   None    Shift=    0.000
 RMSDP=3.72D-06 MaxDP=1.27D-04 DE=-1.14D-05 OVMax= 2.77D-04

 Initial convergence to 1.0D-05 achieved.  Increase integral accuracy.
 Cycle   9  Pass 1  IDiag  1:
 One-electron energy=-0.101459989924D+05
 Calling FoFDFT with Acc= 0.00D+00 ICntrl=  400011 IRadAn=       5.
 IMat=  1 1/2 <PG(P)>=        4020.863999835016
 Remaining memory in FofDFT     1023.47 Mw
 CkSvGd:  ISavGI=        -1 IRadAn=       5 IRASav=       5 ISavGd=        -1.
 CalDSu-InSpLW:  IPartL=    0 NPrtUS=    8 NPrtUL=    1 DoSpLW=F IThBeg=    0 IThEnd=    7 NThAct=    8.
 CalDSu:  NPrtUS=   8 ThrOK=T IAlg=1 DoDPD=T LenP=      101025 LenD1P=             0 GPUOK=F
          ISkipM=0 DoSpLW=F IThBeg=    0 IThEnd=    7.
 IPart=  0 IRanGd=          0 ScrnBf=T ScrnGd=T RCrit=4.00D+00 DoMicB=T.
 IPart=  6        94727 of       110480 points in      99 batches and      474 microbatches, Max-NSigAt=      37 Max-NSgAt2=      37
 IPart=  5        87649 of       103300 points in     103 batches and      517 microbatches, Max-NSigAt=      37 Max-NSgAt2=      37
 IPart=  1        89531 of       104044 points in     101 batches and      491 microbatches, Max-NSigAt=      37 Max-NSgAt2=      37
 IPart=  3        91875 of       110422 points in     108 batches and      534 microbatches, Max-NSigAt=      37 Max-NSgAt2=      37
 IPart=  4        90206 of       104954 points in     101 batches and      535 microbatches, Max-NSigAt=      37 Max-NSgAt2=      37
 IPart=  0        93400 of       110940 points in     105 batches and      501 microbatches, Max-NSigAt=      37 Max-NSgAt2=      37
 IPart=  2        92876 of       107082 points in     101 batches and      542 microbatches, Max-NSigAt=      37 Max-NSgAt2=      37
 IPart=  7        94238 of       109662 points in      99 batches and      507 microbatches, Max-NSigAt=      37 Max-NSgAt2=      37
 IMat=  1 Ex=        -198.083138963171 Ec=          -9.842439368903
 1/2 <PJ(P)> + E(ex) + E(corr)=        3812.938421502942
 IMat=  1 EOne=-0.101459989924D+05 ETwo= 0.381293842150D+04 Energy=-0.633306057087D+04
 1/2 <PG(P)>=        4020.863999835016
 Ex=        -198.083138963171 Ec=          -9.842439368903
 1/2 <PG(P)> + E(ex) + E(corr)=        3812.938421502942
 E= -4040.68366344930     Delta-E=        0.000030200526 Rises=F Damp=F
 DIIS: error= 7.26D-05 at cycle   1 NSaved=   1.
 NSaved= 1 IEnMin= 1 EnMin= -4040.68366344930     IErMin= 1 ErrMin= 7.26D-05
 ErrMax= 7.26D-05  0.00D+00 EMaxC= 1.00D-01 BMatC= 1.97D-06 BMatP= 1.97D-06
 IDIUse=1 WtCom= 1.00D+00 WtEn= 0.00D+00
 Coeff-Com:  0.100D+01
 Coeff:      0.100D+01
 Gap=     0.141 Goal=   None    Shift=    0.000
 RMSDP=3.72D-06 MaxDP=1.27D-04 DE= 3.02D-05 OVMax= 3.44D-04

 Cycle  10  Pass 1  IDiag  1:
 One-electron energy=-0.101459969842D+05
 RMSU=  7.04D-05    CP:  1.00D+00
 Calling FoFDFT with Acc= 0.00D+00 ICntrl=  400011 IRadAn=       5.
 IMat=  1 1/2 <PG(P)>=        4020.861917140317
 Remaining memory in FofDFT     1023.47 Mw
 CkSvGd:  ISavGI=        -1 IRadAn=       5 IRASav=       5 ISavGd=        -1.
 CalDSu-InSpLW:  IPartL=    0 NPrtUS=    8 NPrtUL=    1 DoSpLW=F IThBeg=    0 IThEnd=    7 NThAct=    8.
 CalDSu:  NPrtUS=   8 ThrOK=T IAlg=1 DoDPD=T LenP=      101025 LenD1P=             0 GPUOK=F
          ISkipM=0 DoSpLW=F IThBeg=    0 IThEnd=    7.
 IPart=  0 IRanGd=          0 ScrnBf=T ScrnGd=T RCrit=4.00D+00 DoMicB=T.
 IPart=  3        91603 of       106242 points in      97 batches and      514 microbatches, Max-NSigAt=      37 Max-NSgAt2=      37
 IPart=  0        83908 of        93518 points in      94 batches and      477 microbatches, Max-NSigAt=      37 Max-NSgAt2=      37
 IPart=  4        90308 of       105112 points in     103 batches and      498 microbatches, Max-NSigAt=      37 Max-NSgAt2=      37
 IPart=  7        93973 of       110580 points in     104 batches and      489 microbatches, Max-NSigAt=      37 Max-NSgAt2=      37
 IPart=  5        97189 of       113060 points in      99 batches and      530 microbatches, Max-NSigAt=      37 Max-NSgAt2=      37
 IPart=  1        94825 of       114138 points in     107 batches and      500 microbatches, Max-NSigAt=      37 Max-NSgAt2=      37
 IPart=  2        90790 of       108140 points in     105 batches and      537 microbatches, Max-NSigAt=      37 Max-NSgAt2=      37
 IPart=  6        91906 of       110094 points in     108 batches and      556 microbatches, Max-NSigAt=      37 Max-NSgAt2=      37
 IMat=  1 Ex=        -198.083071850932 Ec=          -9.842433044794
 1/2 <PJ(P)> + E(ex) + E(corr)=        3812.936412244590
 IMat=  1 EOne=-0.101459969842D+05 ETwo= 0.381293641224D+04 Energy=-0.633306057195D+04
 1/2 <PG(P)>=        4020.861917140317
 Ex=        -198.083071850932 Ec=          -9.842433044794
 1/2 <PG(P)> + E(ex) + E(corr)=        3812.936412244590
 E= -4040.68366453000     Delta-E=       -0.000001080706 Rises=F Damp=F
 DIIS: error= 4.53D-05 at cycle   2 NSaved=   2.
 NSaved= 2 IEnMin= 2 EnMin= -4040.68366453000     IErMin= 2 ErrMin= 4.53D-05
 ErrMax= 4.53D-05  0.00D+00 EMaxC= 1.00D-01 BMatC= 1.07D-06 BMatP= 1.97D-06
 IDIUse=1 WtCom= 1.00D+00 WtEn= 0.00D+00
 Coeff-Com:  0.387D+00 0.613D+00
 Coeff:      0.387D+00 0.613D+00
 Gap=     0.141 Goal=   None    Shift=    0.000
 RMSDP=5.30D-06 MaxDP=2.60D-04 DE=-1.08D-06 OVMax= 4.19D-04

 Cycle  11  Pass 1  IDiag  1:
 One-electron energy=-0.101459970042D+05
 RMSU=  5.29D-06    CP:  1.00D+00  1.01D+00
 Calling FoFDFT with Acc= 0.00D+00 ICntrl=  400011 IRadAn=       5.
 IMat=  1 1/2 <PG(P)>=        4020.861832214924
 Remaining memory in FofDFT     1023.47 Mw
 CkSvGd:  ISavGI=        -1 IRadAn=       5 IRASav=       5 ISavGd=        -1.
 CalDSu-InSpLW:  IPartL=    0 NPrtUS=    8 NPrtUL=    1 DoSpLW=F IThBeg=    0 IThEnd=    7 NThAct=    8.
 CalDSu:  NPrtUS=   8 ThrOK=T IAlg=1 DoDPD=T LenP=      101025 LenD1P=             0 GPUOK=F
          ISkipM=0 DoSpLW=F IThBeg=    0 IThEnd=    7.
 IPart=  0 IRanGd=          0 ScrnBf=T ScrnGd=T RCrit=4.00D+00 DoMicB=T.
 IPart=  7        89916 of       102870 points in      97 batches and      486 microbatches, Max-NSigAt=      37 Max-NSgAt2=      37
 IPart=  5        92476 of       108008 points in     101 batches and      553 microbatches, Max-NSigAt=      37 Max-NSgAt2=      37
 IPart=  0        90859 of       104392 points in      98 batches and      512 microbatches, Max-NSigAt=      37 Max-NSgAt2=      37
 IPart=  3        87999 of       101664 points in     102 batches and      496 microbatches, Max-NSigAt=      37 Max-NSgAt2=      37
 IPart=  1        95778 of       115180 points in     107 batches and      523 microbatches, Max-NSigAt=      37 Max-NSgAt2=      37
 IPart=  4        90619 of       105214 points in     101 batches and      521 microbatches, Max-NSigAt=      37 Max-NSgAt2=      37
 IPart=  2        92492 of       110556 points in     106 batches and      475 microbatches, Max-NSigAt=      37 Max-NSgAt2=      37
 IPart=  6        94363 of       113000 points in     105 batches and      535 microbatches, Max-NSigAt=      37 Max-NSgAt2=      37
 IMat=  1 Ex=        -198.082965329312 Ec=          -9.842434687655
 1/2 <PJ(P)> + E(ex) + E(corr)=        3812.936432197956
 IMat=  1 EOne=-0.101459970042D+05 ETwo= 0.381293643220D+04 Energy=-0.633306057202D+04
 1/2 <PG(P)>=        4020.861832214924
 Ex=        -198.082965329312 Ec=          -9.842434687655
 1/2 <PG(P)> + E(ex) + E(corr)=        3812.936432197956
 E= -4040.68366459241     Delta-E=       -0.000000062406 Rises=F Damp=F
 DIIS: error= 4.97D-05 at cycle   3 NSaved=   3.
 NSaved= 3 IEnMin= 3 EnMin= -4040.68366459241     IErMin= 2 ErrMin= 4.53D-05
 ErrMax= 4.97D-05  0.00D+00 EMaxC= 1.00D-01 BMatC= 1.03D-06 BMatP= 1.07D-06
 IDIUse=1 WtCom= 1.00D+00 WtEn= 0.00D+00
 Coeff-Com:  0.347D-02 0.494D+00 0.503D+00
 Coeff:      0.347D-02 0.494D+00 0.503D+00
 Gap=     0.141 Goal=   None    Shift=    0.000
 RMSDP=2.69D-06 MaxDP=1.54D-04 DE=-6.24D-08 OVMax= 2.11D-04

 Cycle  12  Pass 1  IDiag  1:
 One-electron energy=-0.101459980592D+05
 RMSU=  6.27D-07    CP:  1.00D+00  1.01D+00  5.14D-01
 Calling FoFDFT with Acc= 0.00D+00 ICntrl=  400011 IRadAn=       5.
 IMat=  1 1/2 <PG(P)>=        4020.863075853496
 Remaining memory in FofDFT     1023.47 Mw
 CkSvGd:  ISavGI=        -1 IRadAn=       5 IRASav=       5 ISavGd=        -1.
 CalDSu-InSpLW:  IPartL=    0 NPrtUS=    8 NPrtUL=    1 DoSpLW=F IThBeg=    0 IThEnd=    7 NThAct=    8.
 CalDSu:  NPrtUS=   8 ThrOK=T IAlg=1 DoDPD=T LenP=      101025 LenD1P=             0 GPUOK=F
          ISkipM=0 DoSpLW=F IThBeg=    0 IThEnd=    7.
 IPart=  0 IRanGd=          0 ScrnBf=T ScrnGd=T RCrit=4.00D+00 DoMicB=T.
 IPart=  6        90948 of       105122 points in      97 batches and      484 microbatches, Max-NSigAt=      37 Max-NSgAt2=      37
 IPart=  4        86591 of        97594 points in      94 batches and      516 microbatches, Max-NSigAt=      37 Max-NSgAt2=      37
 IPart=  2        89410 of       104984 points in     104 batches and      542 microbatches, Max-NSigAt=      37 Max-NSgAt2=      37
 IPart=  7        89831 of       104418 points in     102 batches and      500 microbatches, Max-NSigAt=      37 Max-NSgAt2=      37
 IPart=  1        98971 of       121964 points in     112 batches and      530 microbatches, Max-NSigAt=      37 Max-NSgAt2=      37
 IPart=  3        92488 of       107408 points in      99 batches and      512 microbatches, Max-NSigAt=      37 Max-NSgAt2=      37
 IPart=  5        95017 of       116048 points in     114 batches and      507 microbatches, Max-NSigAt=      37 Max-NSgAt2=      37
 IPart=  0        91246 of       103346 points in      95 batches and      510 microbatches, Max-NSigAt=      37 Max-NSgAt2=      37
 IMat=  1 Ex=        -198.083151930106 Ec=          -9.842437631834
 1/2 <PJ(P)> + E(ex) + E(corr)=        3812.937486291556
 IMat=  1 EOne=-0.101459980592D+05 ETwo= 0.381293748629D+04 Energy=-0.633306057294D+04
 1/2 <PG(P)>=        4020.863075853496
 Ex=        -198.083151930106 Ec=          -9.842437631834
 1/2 <PG(P)> + E(ex) + E(corr)=        3812.937486291556
 E= -4040.68366551727     Delta-E=       -0.000000924862 Rises=F Damp=F
 DIIS: error= 5.67D-06 at cycle   4 NSaved=   4.
 NSaved= 4 IEnMin= 4 EnMin= -4040.68366551727     IErMin= 4 ErrMin= 5.67D-06
 ErrMax= 5.67D-06  0.00D+00 EMaxC= 1.00D-01 BMatC= 1.76D-08 BMatP= 1.03D-06
 IDIUse=1 WtCom= 1.00D+00 WtEn= 0.00D+00
 Coeff-Com: -0.358D-02 0.299D+00 0.313D+00 0.392D+00
 Coeff:     -0.358D-02 0.299D+00 0.313D+00 0.392D+00
 Gap=     0.141 Goal=   None    Shift=    0.000
 RMSDP=3.86D-07 MaxDP=1.79D-05 DE=-9.25D-07 OVMax= 2.98D-05

 Cycle  13  Pass 1  IDiag  1:
 One-electron energy=-0.101459977511D+05
 RMSU=  2.00D-07    CP:  1.00D+00  1.01D+00  5.17D-01  4.77D-01
 Calling FoFDFT with Acc= 0.00D+00 ICntrl=  400011 IRadAn=       5.
 IMat=  1 1/2 <PG(P)>=        4020.862695431067
 Remaining memory in FofDFT     1023.47 Mw
 CkSvGd:  ISavGI=        -1 IRadAn=       5 IRASav=       5 ISavGd=        -1.
 CalDSu-InSpLW:  IPartL=    0 NPrtUS=    8 NPrtUL=    1 DoSpLW=F IThBeg=    0 IThEnd=    7 NThAct=    8.
 CalDSu:  NPrtUS=   8 ThrOK=T IAlg=1 DoDPD=T LenP=      101025 LenD1P=             0 GPUOK=F
          ISkipM=0 DoSpLW=F IThBeg=    0 IThEnd=    7.
 IPart=  0 IRanGd=          0 ScrnBf=T ScrnGd=T RCrit=4.00D+00 DoMicB=T.
 IPart=  7        97160 of       116282 points in     105 batches and      513 microbatches, Max-NSigAt=      37 Max-NSgAt2=      37
 IPart=  0        90823 of       109902 points in     108 batches and      498 microbatches, Max-NSigAt=      37 Max-NSgAt2=      37
 IPart=  2        87621 of        99080 points in      97 batches and      525 microbatches, Max-NSigAt=      37 Max-NSgAt2=      37
 IPart=  6        88867 of       104150 points in     104 batches and      559 microbatches, Max-NSigAt=      37 Max-NSgAt2=      37
 IPart=  3        91761 of       108138 points in     101 batches and      499 microbatches, Max-NSigAt=      37 Max-NSgAt2=      37
 IPart=  5        94588 of       110186 points in      99 batches and      463 microbatches, Max-NSigAt=      37 Max-NSgAt2=      37
 IPart=  1        90445 of       103812 points in      98 batches and      512 microbatches, Max-NSigAt=      37 Max-NSgAt2=      37
 IPart=  4        93237 of       109334 points in     105 batches and      532 microbatches, Max-NSigAt=      37 Max-NSgAt2=      37
 IMat=  1 Ex=        -198.083081411058 Ec=          -9.842435905744
 1/2 <PJ(P)> + E(ex) + E(corr)=        3812.937178114265
 IMat=  1 EOne=-0.101459977511D+05 ETwo= 0.381293717811D+04 Energy=-0.633306057296D+04
 1/2 <PG(P)>=        4020.862695431067
 Ex=        -198.083081411058 Ec=          -9.842435905744
 1/2 <PG(P)> + E(ex) + E(corr)=        3812.937178114265
 E= -4040.68366553244     Delta-E=       -0.000000015169 Rises=F Damp=F
 DIIS: error= 8.85D-07 at cycle   5 NSaved=   5.
 NSaved= 5 IEnMin= 5 EnMin= -4040.68366553244     IErMin= 5 ErrMin= 8.85D-07
 ErrMax= 8.85D-07  0.00D+00 EMaxC= 1.00D-01 BMatC= 5.69D-10 BMatP= 1.76D-08
 IDIUse=1 WtCom= 1.00D+00 WtEn= 0.00D+00
 Coeff-Com: -0.229D-02 0.159D+00 0.167D+00 0.238D+00 0.439D+00
 Coeff:     -0.229D-02 0.159D+00 0.167D+00 0.238D+00 0.439D+00
 Gap=     0.141 Goal=   None    Shift=    0.000
 RMSDP=7.75D-08 MaxDP=2.87D-06 DE=-1.52D-08 OVMax= 7.72D-06

 Cycle  14  Pass 1  IDiag  1:
 One-electron energy=-0.101459976179D+05
 RMSU=  5.80D-08    CP:  1.00D+00  1.01D+00  5.18D-01  4.90D-01  7.49D-01
 Calling FoFDFT with Acc= 0.00D+00 ICntrl=  400011 IRadAn=       5.
 IMat=  1 1/2 <PG(P)>=        4020.862558430088
 Remaining memory in FofDFT     1023.47 Mw
 CkSvGd:  ISavGI=        -1 IRadAn=       5 IRASav=       5 ISavGd=        -1.
 CalDSu-InSpLW:  IPartL=    0 NPrtUS=    8 NPrtUL=    1 DoSpLW=F IThBeg=    0 IThEnd=    7 NThAct=    8.
 CalDSu:  NPrtUS=   8 ThrOK=T IAlg=1 DoDPD=T LenP=      101025 LenD1P=             0 GPUOK=F
          ISkipM=0 DoSpLW=F IThBeg=    0 IThEnd=    7.
 IPart=  0 IRanGd=          0 ScrnBf=T ScrnGd=T RCrit=4.00D+00 DoMicB=T.
 IPart=  1        91142 of       107520 points in     103 batches and      490 microbatches, Max-NSigAt=      37 Max-NSgAt2=      37
 IPart=  3        92061 of       108016 points in     103 batches and      525 microbatches, Max-NSigAt=      37 Max-NSgAt2=      37
 IPart=  5        94983 of       109704 points in      99 batches and      560 microbatches, Max-NSigAt=      37 Max-NSgAt2=      37
 IPart=  2        93002 of       111034 points in     106 batches and      527 microbatches, Max-NSigAt=      37 Max-NSgAt2=      37
 IPart=  4        89035 of       103426 points in     103 batches and      533 microbatches, Max-NSigAt=      37 Max-NSgAt2=      37
 IPart=  7        89892 of       102488 points in      97 batches and      492 microbatches, Max-NSigAt=      37 Max-NSgAt2=      37
 IPart=  6        92155 of       110956 points in     107 batches and      488 microbatches, Max-NSigAt=      37 Max-NSgAt2=      37
 IPart=  0        92232 of       107740 points in      99 batches and      486 microbatches, Max-NSigAt=      37 Max-NSgAt2=      37
 IMat=  1 Ex=        -198.083077884323 Ec=          -9.842435623336
 1/2 <PJ(P)> + E(ex) + E(corr)=        3812.937044922429
 IMat=  1 EOne=-0.101459976179D+05 ETwo= 0.381293704492D+04 Energy=-0.633306057296D+04
 1/2 <PG(P)>=        4020.862558430088
 Ex=        -198.083077884323 Ec=          -9.842435623336
 1/2 <PG(P)> + E(ex) + E(corr)=        3812.937044922429
 E= -4040.68366553302     Delta-E=       -0.000000000575 Rises=F Damp=F
 DIIS: error= 1.60D-07 at cycle   6 NSaved=   6.
 NSaved= 6 IEnMin= 6 EnMin= -4040.68366553302     IErMin= 6 ErrMin= 1.60D-07
 ErrMax= 1.60D-07  0.00D+00 EMaxC= 1.00D-01 BMatC= 2.09D-11 BMatP= 5.69D-10
 IDIUse=1 WtCom= 1.00D+00 WtEn= 0.00D+00
 Coeff-Com: -0.903D-03 0.594D-01 0.625D-01 0.939D-01 0.221D+00 0.564D+00
 Coeff:     -0.903D-03 0.594D-01 0.625D-01 0.939D-01 0.221D+00 0.564D+00
 Gap=     0.141 Goal=   None    Shift=    0.000
 RMSDP=1.78D-08 MaxDP=7.78D-07 DE=-5.75D-10 OVMax= 1.57D-06

 Cycle  15  Pass 1  IDiag  1:
 One-electron energy=-0.101459975755D+05
 RMSU=  1.55D-08    CP:  1.00D+00  1.01D+00  5.18D-01  4.92D-01  7.64D-01
                    CP:  8.66D-01
 Calling FoFDFT with Acc= 0.00D+00 ICntrl=  400011 IRadAn=       5.
 IMat=  1 1/2 <PG(P)>=        4020.862515038010
 Remaining memory in FofDFT     1023.47 Mw
 CkSvGd:  ISavGI=        -1 IRadAn=       5 IRASav=       5 ISavGd=        -1.
 CalDSu-InSpLW:  IPartL=    0 NPrtUS=    8 NPrtUL=    1 DoSpLW=F IThBeg=    0 IThEnd=    7 NThAct=    8.
 CalDSu:  NPrtUS=   8 ThrOK=T IAlg=1 DoDPD=T LenP=      101025 LenD1P=             0 GPUOK=F
          ISkipM=0 DoSpLW=F IThBeg=    0 IThEnd=    7.
 IPart=  0 IRanGd=          0 ScrnBf=T ScrnGd=T RCrit=4.00D+00 DoMicB=T.
 IPart=  0        91736 of       109798 points in     103 batches and      509 microbatches, Max-NSigAt=      37 Max-NSgAt2=      37
 IPart=  4        90791 of       104076 points in      97 batches and      486 microbatches, Max-NSigAt=      37 Max-NSgAt2=      37
 IPart=  3        87556 of        99708 points in      98 batches and      487 microbatches, Max-NSigAt=      37 Max-NSgAt2=      37
 IPart=  7        95162 of       109102 points in      97 batches and      497 microbatches, Max-NSigAt=      37 Max-NSgAt2=      37
 IPart=  6        91662 of       109090 points in     106 batches and      567 microbatches, Max-NSigAt=      37 Max-NSgAt2=      37
 IPart=  5        92048 of       107380 points in     102 batches and      526 microbatches, Max-NSigAt=      37 Max-NSgAt2=      37
 IPart=  1        91191 of       109244 points in     108 batches and      517 microbatches, Max-NSigAt=      37 Max-NSgAt2=      37
 IPart=  2        94356 of       112486 points in     106 batches and      512 microbatches, Max-NSigAt=      37 Max-NSgAt2=      37
 IMat=  1 Ex=        -198.083076899253 Ec=          -9.842435576753
 1/2 <PJ(P)> + E(ex) + E(corr)=        3812.937002562004
 IMat=  1 EOne=-0.101459975755D+05 ETwo= 0.381293700256D+04 Energy=-0.633306057296D+04
 1/2 <PG(P)>=        4020.862515038010
 Ex=        -198.083076899253 Ec=          -9.842435576753
 1/2 <PG(P)> + E(ex) + E(corr)=        3812.937002562004
 E= -4040.68366553299     Delta-E=        0.000000000021 Rises=F Damp=F
 DIIS: error= 1.08D-07 at cycle   7 NSaved=   7.
 NSaved= 7 IEnMin= 6 EnMin= -4040.68366553302     IErMin= 7 ErrMin= 1.08D-07
 ErrMax= 1.08D-07  0.00D+00 EMaxC= 1.00D-01 BMatC= 5.63D-12 BMatP= 2.09D-11
 IDIUse=1 WtCom= 1.00D+00 WtEn= 0.00D+00
 Coeff-Com: -0.253D-03 0.152D-01 0.160D-01 0.263D-01 0.768D-01 0.362D+00
 Coeff-Com:  0.504D+00
 Coeff:     -0.253D-03 0.152D-01 0.160D-01 0.263D-01 0.768D-01 0.362D+00
 Coeff:      0.504D+00
 Gap=     0.141 Goal=   None    Shift=    0.000
 RMSDP=7.20D-09 MaxDP=4.30D-07 DE= 2.09D-11 OVMax= 8.74D-07

 SCF Done:  E(RB3LYP) =  -4040.68366553     A.U. after   15 cycles
            NFock= 15  Conv=0.72D-08     -V/T= 2.0034
 KE= 4.026815185991D+03 PE=-1.417281276151D+04 EE= 3.812937002562D+03
 DoSCS=F DFT=T ScalE2(SS,OS)=  1.000000  1.000000
 ExpMin= 1.22D-01 ExpMax= 1.13D+05 ExpMxC= 1.70D+04 IAcc=3 IRadAn=         5 AccDes= 0.00D+00
 HarFok:  IExCor=  205 AccDes= 0.00D+00 IRadAn=         5 IDoV=-2 UseB2=F ITyADJ=14
 ICtDFT= 12500011 ScaDFX=  1.000000  1.000000  1.000000  1.000000
 GSVD:  LWork=       -1584 too small for GESVD, short by        7020 words or        7020 for optimal perf.
 NROrb=    387 NOA=    67 NOB=    67 NVA=   320 NVB=   320

 **** Warning!!: The largest alpha MO coefficient is  0.15464555D+02

    20 initial guesses have been made.
 Iteration     1 Dimension    20 NMult     0 NNew     20
 New state      3 was old state      4
 New state      4 was old state      3
 New state      5 was old state      7
 Iteration     2 Dimension    30 NMult    20 NNew     10
 New state      3 was old state      5
 New state      4 was old state      3
 New state      5 was old state      4
 Iteration     3 Dimension    40 NMult    30 NNew     10
 Iteration     4 Dimension    50 NMult    40 NNew     10
 Iteration     5 Dimension    60 NMult    50 NNew     10
 Iteration     6 Dimension    66 NMult    60 NNew      6
 ***********************************************************************
 Excited states from <AA,BB:AA,BB> singles matrix:
 ***********************************************************************
 
 Ground to excited state transition densities written to RWF  633
 Ground to excited state transition electric dipole moments (Au):
       state          X           Y           Z        Dip. S.      Osc.
         1        -0.3793     -0.1960      0.0813      0.1889      0.0161
         2        -1.0586     -0.8602      0.3112      1.9574      0.1751
         3         0.4777     -0.0897     -0.0446      0.2382      0.0246
         4         0.4740      0.0760     -0.0152      0.2307      0.0242
         5        -0.0252     -0.0023     -0.0001      0.0006      0.0001
 Ground to excited state transition velocity dipole moments (Au):
       state          X           Y           Z        Dip. S.      Osc.
         1         0.0444      0.0251     -0.0109      0.0027      0.0142
         2         0.1365      0.1147     -0.0434      0.0337      0.1672
         3        -0.0731      0.0138      0.0087      0.0056      0.0242
         4        -0.0689     -0.0098      0.0028      0.0049      0.0206
         5         0.0038     -0.0002      0.0002      0.0000      0.0001
 Ground to excited state transition magnetic dipole moments (Au):
       state          X           Y           Z
         1        -0.0015      0.0039     -0.3357
         2         0.0104     -0.2614     -1.1387
         3         0.0053     -0.5186      0.5438
         4         0.0372     -0.1447      0.2463
         5        -0.0018      0.0297      0.0135
 Ground to excited state transition velocity quadrupole moments (Au):
       state          XX          YY          ZZ          XY          XZ          YZ
         1        -0.0693     -0.0000     -0.0287     -0.1637      0.0491      0.0465
         2        -0.5873     -0.0486     -0.1319     -0.6109      0.3149      0.2244
         3        -0.2502      0.0293      0.0412      0.1396      0.0555      0.0249
         4        -0.0010     -0.0590     -0.0021      0.1527      0.0543     -0.0166
         5         0.0029      0.0096      0.0041      0.0166     -0.0182     -0.0056
 <0|del|b> * <b|rxdel|0> + <0|del|b> * <b|delr+rdel|0>
 Rotatory Strengths (R) in cgs (10**-40 erg-esu-cm/Gauss)
       state          XX          YY          ZZ    R(velocity)    E-M Angle
         1        11.9686     10.7233     -2.2117      6.8267       77.79
         2        26.0124    144.8025    -60.7902     36.6749       84.41
         3        -4.6549      2.9416    -11.3799     -4.3644       92.92
         4         6.9522     -2.5986     -6.3584     -0.6683       91.27
         5        -0.0066     -0.0652      0.0280     -0.0146       90.00
 1/2[<0|r|b>*<b|rxdel|0> + (<0|rxdel|b>*<b|r|0>)*]
 Rotatory Strengths (R) in cgs (10**-40 erg-esu-cm/Gauss)
       state          XX          YY          ZZ     R(length)
         1        -0.3953      0.5450     19.3008      6.4835
         2         7.7832   -159.0244    250.5811     33.1133
         3        -1.7914    -32.8815     17.1545     -5.8395
         4       -12.4806      7.7798      2.6465     -0.6847
         5        -0.0328      0.0490      0.0006      0.0056
  1/2[<0|del|b>*<b|r|0> + (<0|r|b>*<b|del|0>)*] (Au)
       state          X           Y           Z        Dip. S.   Osc.(frdel)
         1        -0.0169     -0.0049     -0.0009      0.0227      0.0151
         2        -0.1445     -0.0986     -0.0135      0.2566      0.1711
         3        -0.0349     -0.0012     -0.0004      0.0365      0.0244
         4        -0.0327     -0.0007     -0.0000      0.0335      0.0223
         5        -0.0001      0.0000     -0.0000      0.0001      0.0001

 Excitation energies and oscillator strengths:
 
 Excited state symmetry could not be determined.
 Excited State   1:      Singlet-?Sym    3.4827 eV  356.00 nm  f=0.0161  <S**2>=0.000
     103 ->104         0.70097
 This state for optimization and/or second-order correction.
 Total Energy, E(TD-HF/TD-DFT) =  -4040.55567866    
 Copying the excited state density for this state as the 1-particle RhoCI density.
 
 Excited state symmetry could not be determined.
 Excited State   2:      Singlet-?Sym    3.6520 eV  339.50 nm  f=0.1751  <S**2>=0.000
     102 ->105         0.10534
     103 ->105         0.68567
 
 Excited state symmetry could not be determined.
 Excited State   3:      Singlet-?Sym    4.2094 eV  294.54 nm  f=0.0246  <S**2>=0.000
     100 ->105        -0.12765
     101 ->104         0.20919
     101 ->105         0.61661
     102 ->104         0.14195
 
 Excited state symmetry could not be determined.
 Excited State   4:      Singlet-?Sym    4.2745 eV  290.05 nm  f=0.0242  <S**2>=0.000
     101 ->105        -0.14423
     102 ->104         0.68506
 
 Excited state symmetry could not be determined.
 Excited State   5:      Singlet-?Sym    4.2930 eV  288.81 nm  f=0.0001  <S**2>=0.000
     103 ->106         0.70578
 SavETr:  write IOETrn=   770 NScale= 10 NData=  16 NLR=1 NState=    5 LETran=     100.

 **********************************************************************

            Population analysis using the SCF Density.

 **********************************************************************

 Alpha  occ. eigenvalues -- -482.78246-101.52297 -62.46432 -56.29670 -56.29302
 Alpha  occ. eigenvalues --  -56.29298 -19.14944 -19.13442 -19.12902 -14.40075
 Alpha  occ. eigenvalues --  -14.39062 -14.37989 -10.32065 -10.30881 -10.27304
 Alpha  occ. eigenvalues --  -10.25746 -10.25738 -10.24150 -10.23446 -10.23264
 Alpha  occ. eigenvalues --  -10.22984 -10.22847 -10.22561 -10.22512 -10.20605
 Alpha  occ. eigenvalues --  -10.20521 -10.20441 -10.19192  -9.47793  -8.68269
 Alpha  occ. eigenvalues --   -7.24698  -7.23702  -7.23648  -6.51628  -6.50315
 Alpha  occ. eigenvalues --   -6.50308  -2.63055  -2.62677  -2.62673  -2.61636
 Alpha  occ. eigenvalues --   -2.61636  -1.06579  -1.05687  -1.04663  -1.00248
 Alpha  occ. eigenvalues --   -0.94802  -0.91000  -0.87190  -0.85997  -0.85370
 Alpha  occ. eigenvalues --   -0.79436  -0.78012  -0.77617  -0.76193  -0.73794
 Alpha  occ. eigenvalues --   -0.71165  -0.67958  -0.64633  -0.63986  -0.62694
 Alpha  occ. eigenvalues --   -0.61262  -0.60606  -0.58109  -0.57256  -0.56848
 Alpha  occ. eigenvalues --   -0.53223  -0.51710  -0.51035  -0.50353  -0.49135
 Alpha  occ. eigenvalues --   -0.48197  -0.47151  -0.46931  -0.45910  -0.45502
 Alpha  occ. eigenvalues --   -0.45306  -0.44568  -0.44445  -0.43663  -0.43249
 Alpha  occ. eigenvalues --   -0.42455  -0.41700  -0.41421  -0.40203  -0.39649
 Alpha  occ. eigenvalues --   -0.38574  -0.37507  -0.37423  -0.36159  -0.35834
 Alpha  occ. eigenvalues --   -0.35303  -0.32839  -0.32075  -0.30607  -0.30450
 Alpha  occ. eigenvalues --   -0.29554  -0.29007  -0.28431  -0.28181  -0.27319
 Alpha  occ. eigenvalues --   -0.25838  -0.24542  -0.21462
 Alpha virt. eigenvalues --   -0.07327  -0.06357  -0.04526  -0.00748  -0.00138
 Alpha virt. eigenvalues --    0.01017   0.01643   0.02276   0.03677   0.04247
 Alpha virt. eigenvalues --    0.07565   0.08168   0.08814   0.09344   0.09445
 Alpha virt. eigenvalues --    0.10318   0.11669   0.12445   0.13034   0.14127
 Alpha virt. eigenvalues --    0.14259   0.14677   0.15775   0.16987   0.17797
 Alpha virt. eigenvalues --    0.18054   0.20079   0.21959   0.23557   0.24029
 Alpha virt. eigenvalues --    0.25369   0.25861   0.26145   0.26428   0.27499
 Alpha virt. eigenvalues --    0.27928   0.28383   0.29171   0.30428   0.31187
 Alpha virt. eigenvalues --    0.32254   0.33307   0.33659   0.34947   0.36389
 Alpha virt. eigenvalues --    0.36496   0.37239   0.37679   0.38486   0.39135
 Alpha virt. eigenvalues --    0.39785   0.41145   0.42292   0.42856   0.43334
 Alpha virt. eigenvalues --    0.43648   0.43841   0.44711   0.44745   0.45601
 Alpha virt. eigenvalues --    0.45840   0.47050   0.47402   0.47850   0.48753
 Alpha virt. eigenvalues --    0.49958   0.50148   0.50686   0.50831   0.51152
 Alpha virt. eigenvalues --    0.51501   0.52418   0.53743   0.54210   0.54740
 Alpha virt. eigenvalues --    0.55057   0.55984   0.56558   0.56762   0.57628
 Alpha virt. eigenvalues --    0.58986   0.59314   0.59415   0.60458   0.60870
 Alpha virt. eigenvalues --    0.61784   0.62285   0.62636   0.63061   0.63258
 Alpha virt. eigenvalues --    0.63769   0.63803   0.64082   0.64446   0.64666
 Alpha virt. eigenvalues --    0.65427   0.66442   0.67087   0.68146   0.68574
 Alpha virt. eigenvalues --    0.69103   0.69731   0.70457   0.70816   0.71774
 Alpha virt. eigenvalues --    0.72031   0.72399   0.72810   0.74358   0.74905
 Alpha virt. eigenvalues --    0.75432   0.76485   0.76837   0.77574   0.78035
 Alpha virt. eigenvalues --    0.79191   0.79578   0.80058   0.80940   0.81299
 Alpha virt. eigenvalues --    0.82350   0.83542   0.84691   0.84892   0.85996
 Alpha virt. eigenvalues --    0.89316   0.90040   0.91609   0.93037   0.95715
 Alpha virt. eigenvalues --    0.96636   0.96939   0.97635   0.98371   1.00586
 Alpha virt. eigenvalues --    1.01952   1.02176   1.03834   1.04938   1.06401
 Alpha virt. eigenvalues --    1.07233   1.08358   1.09927   1.11559   1.12686
 Alpha virt. eigenvalues --    1.13742   1.16309   1.17799   1.19822   1.20151
 Alpha virt. eigenvalues --    1.20240   1.20770   1.21749   1.22898   1.23141
 Alpha virt. eigenvalues --    1.23386   1.24007   1.24714   1.25402   1.25700
 Alpha virt. eigenvalues --    1.26688   1.26927   1.27993   1.29180   1.29306
 Alpha virt. eigenvalues --    1.31814   1.33180   1.33627   1.35960   1.37332
 Alpha virt. eigenvalues --    1.38717   1.38972   1.41972   1.42340   1.45706
 Alpha virt. eigenvalues --    1.46514   1.47183   1.48277   1.49113   1.50269
 Alpha virt. eigenvalues --    1.52317   1.58070   1.60337   1.62893   1.62949
 Alpha virt. eigenvalues --    1.63273   1.65278   1.66482   1.67404   1.68334
 Alpha virt. eigenvalues --    1.69109   1.70583   1.71257   1.71617   1.71921
 Alpha virt. eigenvalues --    1.72240   1.72511   1.72707   1.73941   1.76063
 Alpha virt. eigenvalues --    1.76904   1.77410   1.78503   1.79945   1.80454
 Alpha virt. eigenvalues --    1.81410   1.82593   1.83642   1.84695   1.85420
 Alpha virt. eigenvalues --    1.85826   1.86347   1.87123   1.88516   1.88971
 Alpha virt. eigenvalues --    1.89204   1.91631   1.91983   1.92813   1.94659
 Alpha virt. eigenvalues --    1.95103   1.95917   1.97726   2.00914   2.01710
 Alpha virt. eigenvalues --    2.02768   2.04432   2.04475   2.05993   2.07224
 Alpha virt. eigenvalues --    2.08865   2.09574   2.10271   2.10863   2.11591
 Alpha virt. eigenvalues --    2.12729   2.15431   2.16579   2.17559   2.18825
 Alpha virt. eigenvalues --    2.21286   2.21597   2.23069   2.24408   2.24685
 Alpha virt. eigenvalues --    2.25832   2.26891   2.28762   2.29010   2.30796
 Alpha virt. eigenvalues --    2.31655   2.32104   2.33090   2.34223   2.34982
 Alpha virt. eigenvalues --    2.39749   2.41221   2.42392   2.42819   2.46282
 Alpha virt. eigenvalues --    2.47213   2.47394   2.48965   2.53232   2.57485
 Alpha virt. eigenvalues --    2.59015   2.59289   2.59624   2.60008   2.60264
 Alpha virt. eigenvalues --    2.60473   2.62876   2.64229   2.67540   2.68579
 Alpha virt. eigenvalues --    2.68941   2.69316   2.71192   2.72137   2.74501
 Alpha virt. eigenvalues --    2.76465   2.79107   2.81583   2.81817   2.82767
 Alpha virt. eigenvalues --    2.83891   2.85272   2.87145   2.88860   2.89863
 Alpha virt. eigenvalues --    2.91373   2.93427   2.94286   2.96549   3.00498
 Alpha virt. eigenvalues --    3.00692   3.06661   3.07985   3.11862   3.12105
 Alpha virt. eigenvalues --    3.13742   3.17033   3.17495   3.23633   3.28156
 Alpha virt. eigenvalues --    3.29673   3.38278   3.41938   3.43217   3.44375
 Alpha virt. eigenvalues --    3.46025   3.49992   3.56042   3.57770   3.59421
 Alpha virt. eigenvalues --    3.62517   3.64515   3.69649   3.82098   3.84638
          Condensed to atoms (all electrons):
 Mulliken charges:
               1
     1  O   -0.235033
     2  C    0.066864
     3  N   -0.047250
     4  N   -0.153942
     5  C    0.025148
     6  C    0.024903
     7  C    0.137456
     8  O   -0.178156
     9  C   -0.035773
    10  C    0.036103
    11  C   -0.006872
    12  Br  -0.060605
    13  C   -0.017804
    14  C    0.184379
    15  N   -0.172427
    16  C    0.155248
    17  C    0.024865
    18  C    0.007057
    19  C    0.044004
    20  C    0.056287
    21  Cl  -0.080084
    22  C    0.036525
    23  C   -0.020786
    24  O   -0.287349
    25  H    0.149587
    26  H    0.027603
    27  H    0.179823
    28  H   -0.015577
    29  H   -0.008699
    30  H   -0.016455
    31  H    0.044577
    32  H    0.023672
    33  H    0.131809
    34  H    0.010983
    35  H   -0.003896
    36  H   -0.007611
    37  H   -0.018574
 Sum of Mulliken charges =  -0.00000
 Mulliken charges with hydrogens summed into heavy atoms:
               1
     1  O   -0.235033
     2  C    0.066864
     3  N    0.102337
     4  N   -0.153942
     5  C    0.052751
     6  C    0.024903
     7  C    0.137456
     8  O    0.001667
     9  C   -0.051350
    10  C    0.027404
    11  C   -0.006872
    12  Br  -0.060605
    13  C   -0.034260
    14  C    0.252628
    15  N   -0.040618
    16  C    0.155248
    17  C    0.024865
    18  C    0.018040
    19  C    0.040108
    20  C    0.056287
    21  Cl  -0.080084
    22  C    0.028914
    23  C   -0.039360
    24  O   -0.287349
 Electronic spatial extent (au):  <R**2>=          21511.5866
 Charge=             -0.0000 electrons
 Dipole moment (field-independent basis, Debye):
    X=              5.5458    Y=              1.6834    Z=             -1.1857  Tot=              5.9157

 Test job not archived.
 1\1\GINC-C488\SP\RB3LYP TD-FC\def2SVP\C16H13Br1Cl1N3O3\CA12058097\15-A
 ug-2025\0\\#T gfinput b3lyp/def2svp nosym td=(nstates=5) IOP(5/33=1) i
 nt(grid=ultrafine) scf=(verytight)\\cis isomer tddft\\0,1\O,0,-0.35682
 7,2.906557,-0.589493\C,0,0.435892,2.411772,0.19331\N,0,0.190054,1.3210
 71,0.988418\N,0,-0.915354,0.530083,1.039325\C,0,-1.990325,0.772235,0.3
 57909\C,0,-3.137557,-0.122033,0.462852\C,0,-3.124849,-1.27621,1.298788
 \O,0,-2.061932,-1.605241,2.036876\C,0,-4.266284,-2.09582,1.349953\C,0,
 -5.398298,-1.794373,0.599688\C,0,-5.40901,-0.657874,-0.222443\Br,0,-6.
 965038,-0.246777,-1.251285\C,0,-4.293959,0.167651,-0.290508\C,0,1.8511
 65,2.991686,0.393367\N,0,2.931389,2.129443,-0.058684\C,0,3.407815,1.10
 978,0.712236\C,0,4.591241,0.352653,0.191421\C,0,4.840992,-0.916816,0.7
 37292\C,0,5.925251,-1.678307,0.307621\C,0,6.781293,-1.160466,-0.671341
 \Cl,0,8.142368,-2.104773,-1.213973\C,0,6.56316,0.110007,-1.214746\C,0,
 5.47073,0.859987,-0.779182\O,0,2.882265,0.823477,1.788321\H,0,0.968606
 ,0.989034,1.567149\H,0,-2.064251,1.638826,-0.306381\H,0,-1.362957,-0.9
 19012,1.875887\H,0,-4.238799,-2.975596,1.995909\H,0,-6.276811,-2.44012
 7,0.650199\H,0,-4.302398,1.052363,-0.93064\H,0,2.008327,3.210107,1.461
 323\H,0,1.87964,3.931274,-0.172238\H,0,3.245507,2.217865,-1.016829\H,0
 ,4.166008,-1.294134,1.50749\H,0,6.115137,-2.668245,0.725249\H,0,7.2510
 86,0.506158,-1.96309\H,0,5.332793,1.864051,-1.187867\\Version=ES64L-G1
 6RevB.01\HF=-4040.6836655\RMSD=7.204e-09\PG=C01 [X(C16H13Br1Cl1N3O3)]\
 \@


 IT WAS AN ACT OF DESPARATION. FOR SIX YEARS I HAD STRUGGLED WITH THE
 BLACKBODY THEORY. I KNEW THE PROBLEM WAS FUNDAMENTAL, AND I KNEW
 THE ANSWER. I HAD TO FIND A THEORETICAL EXPLANATION AT ANY COST,
 EXCEPT FOR THE INVIOLABLITY OF THE TWO LAWS OF THERMODYNAMICS.
   -- MAX PLANCK, 1931
 Job cpu time:       0 days  0 hours 27 minutes 56.0 seconds.
 Elapsed time:       0 days  0 hours  3 minutes 44.7 seconds.
 File lengths (MBytes):  RWF=   1083 Int=      0 D2E=      0 Chk=     46 Scr=      1
 Normal termination of Gaussian 16 at Fri Aug 15 00:44:15 2025.
real 230.03
user 1673.17
sys 2.89
